/*--------------------------------*- C++ -*----------------------------------*\
  =========                 |
  \\      /  F ield         | OpenFOAM: The Open Source CFD Toolbox
   \\    /   O peration     | Website:  https://openfoam.org
    \\  /    A nd           | Version:  10
     \\/     M anipulation  |
\*---------------------------------------------------------------------------*/
FoamFile
{
    format      ascii;
    class       surfaceScalarField;
    location    "0";
    object      phi;
}
// * * * * * * * * * * * * * * * * * * * * * * * * * * * * * * * * * * * * * //

dimensions      [0 3 -1 0 0 0 0];

internalField   nonuniform List<scalar> 
25430
(
-0.37532
1.82302
0.00540025
0.605847
-0.0666643
-2.07026
2.09366
0.0025897
-0.0757155
0.092035
-0.0609282
0.085683
-0.0846368
-2.12412
2.12574
0.00177249
0.00683348
0.0788068
-0.0798911
0.073684
-0.0995626
-0.574603
0.576614
0.00312719
0.103254
-0.0151113
-0.478866
0.460723
0.00553862
0.029206
-0.464655
0.422961
0.0584016
0.000120848
-0.0460216
-1.21211
7.72295
1.93609
0.0143032
0.367267
-8.59996
8.65278
-0.433646
0.0130932
-0.214868
-8.61653
8.59801
0.220895
0.00907114
-0.404138
-8.84643
8.81425
0.701208
-0.00536404
0.092435
-0.351469
0.0254802
-0.536925
-8.84803
8.74042
1.13444
-0.00906818
0.0309854
-0.513845
0.000537089
-0.642121
-8.49144
8.05975
1.91278
-0.00190531
-0.0921175
-0.572717
-0.170219
-0.879671
3.82827
0.0175884
-0.639239
-0.86968
-0.636278
-7.98337
1.83786
1.7753
1.75366
1.79501
-0.456455
-1.61441
1.69822
0.0149751
-0.736534
-0.500315
-0.671288
0.416137
0.691629
0.727776
0.439938
35.0718
-1.35525
0.037389
-3.39963
3.72768
-3.22745
3.70452
34.9237
-0.416926
0.010671
0.192692
0.0851992
0.237436
0.0393124
34.8934
1.38884
0.00899558
-0.333983
-0.337693
-0.268217
-0.430017
34.9389
3.60489
-0.00637726
-0.813289
-0.971876
-0.820462
-1.02936
34.1897
6.19399
-0.00812705
-1.32991
-1.38836
-1.3074
-1.40818
34.8183
11.1347
-0.0109036
-2.30065
-3.56927
-2.22447
-3.66335
8.48308
21.0267
0.00292093
8.38542
8.31308
8.4548
-4.46814
-5.65517
-4.38979
-5.34376
-1.92689
8.08576
0.00907136
2.40382
2.07651
2.50407
2.42233
-2.59822
-2.25546
-2.23364
35.4278
-1.6717
0.00153634
35.3924
-0.387511
0.00652057
35.3717
1.40402
0.0051628
35.2967
3.68611
-0.00199931
35.0131
6.48339
-0.00428273
34.833
11.3169
-0.00422769
8.98384
19.0834
-0.0106711
9.41928
8.98187
9.39905
-7.59608
9.80505
6.7476
0.0201619
-2.84609
-2.69575
3.05634
-0.0204075
2.50265
-1.18137
0.804825
0.332076
-0.00634224
-0.0307688
35.7597
-0.00504803
35.7634
0.00326448
35.766
0.00301437
35.7686
-0.000801421
35.7851
-0.00219614
36.1834
-0.00292192
39.1798
0.00125993
10.9341
0.0400355
-6.38606
-6.35611
-6.40603
-6.33389
10.4312
10.9197
10.4081
-7.4651
12.2594
6.11933
0.0228186
-1.36675
12.6106
3.25801
-0.0025222
-0.344248
-1.23798
-0.453798
-12.4719
46.9799
-0.00217993
-4.89478
-4.33109
-4.9043
-4.38044
0.00838883
-3.03581
-2.54201
-2.98509
-2.43807
-0.00557827
-0.281531
1.80893
0.526008
0.00459419
-0.00199528
-2.09716
0.0512651
2.11383
-0.0677367
0.00178866
-0.00100271
-0.0202375
-2.16079
2.16624
0.0150664
0.00071513
0.00067818
-0.0774026
-2.05041
1.96919
0.158442
-0.000495813
0.00210859
-2.22097
1.96189
0.274995
-0.00130437
-0.0167107
0.000379287
-1.80411
1.74819
0.0852076
-0.000409474
-0.0292643
-0.806571
-0.00924664
7.66689
1.60159
0.00862921
0.376545
-0.00654569
-8.58713
8.61151
-0.398191
0.00381438
-0.189873
-0.00383909
-8.60064
8.54034
0.252646
0.0013543
-0.90053
0.00195139
-8.54216
8.58902
0.853387
-0.0016695
-1.10661
0.00417195
-8.81352
8.68816
1.23111
-0.00332175
-1.40901
0.00113919
-8.38853
7.94078
1.85817
-0.00255272
-0.00781457
-0.80785
7.21087
3.92668
-0.00237556
-0.918433
-0.798116
-0.91375
-7.68921
0.0227061
-2.07649
-1.8983
2.11099
1.85028
-0.00918675
35.0081
-1.9929
0.01873
-3.07288
3.81902
-3.06047
3.84989
34.8396
-0.441122
0.00996291
0.263354
0.0356919
0.260188
0.051128
34.8308
1.52223
0.00485231
-0.263285
-0.486211
-0.274374
-0.485437
34.8525
3.66677
-0.000620763
-0.835088
-1.00399
-0.85355
-1.00153
34.1585
6.18926
-0.00215257
-1.33016
-1.41733
-1.34928
-1.40454
33.0243
10.9704
0.000678056
-2.16662
-2.86903
-2.13548
-2.67666
8.34504
19.0189
0.00350097
8.48358
8.23524
8.4845
-4.29236
-5.50386
-4.26437
-5.48295
-0.00896007
-8.73987
8.27865
0.00407076
2.26591
2.16521
2.16139
2.21864
35.3466
-2.24823
0.00988344
35.3097
-0.404497
0.00680721
35.2983
1.53513
0.00360826
35.2493
3.714
-0.000186115
34.9753
6.46009
-0.00118892
34.8007
11.1414
-0.000552661
8.98981
18.1746
0.00381787
8.85672
8.99627
8.78765
0.00148629
-7.52414
9.5168
7.00289
-0.00722931
-0.00451803
-2.74319
-2.75189
3.02892
2.47034
0.000344546
0.00173134
-3.31142
2.76904
0.545516
-0.00139359
-0.00348059
35.6786
0.00393491
35.6789
0.00399996
35.6921
0.00237307
35.7059
1.16978e-05
35.7312
-0.00069294
36.134
-0.000782362
38.2777
0.00326303
10.9134
0.00177425
-6.00819
-6.94897
-5.99643
-7.02503
10.4024
10.9165
10.4078
-7.11411
11.9431
6.08961
-0.00481138
-0.000373573
0.00216025
-3.23863
-12.312
12.2839
3.26898
-0.00437714
46.7767
-0.00216449
-4.82074
-4.37529
-4.81146
-4.33609
-0.00184791
-2.94662
-2.41621
-2.93717
-2.39285
-0.00196791
-0.276427
1.8053
0.520539
0.00157658
-2.09038
-0.00122352
0.0542616
-0.0728685
0.00104107
2.10917
-0.000584456
-0.0186622
-2.15726
2.16586
0.0101259
0.000526713
-5.09881e-05
-0.0766501
-2.05303
1.97255
0.157091
8.69016e-05
0.000231686
-2.2121
1.95395
0.274083
-0.000131663
-0.0160364
9.89368e-05
-1.79979
1.74735
0.0759587
-4.0257e-05
-0.0235805
-0.770301
-0.00633657
7.66235
1.56583
0.00454257
0.394992
-0.00373106
-8.57368
8.60622
-0.42672
0.00292291
-0.174741
-0.00158962
-8.5871
8.52826
0.23373
0.00144552
-0.920891
0.000208007
-8.51503
8.57494
0.860502
0.000272962
-1.10818
0.00108738
-8.80502
8.68609
1.22632
-0.000292391
-1.34975
0.000306567
-8.37146
7.92338
1.79742
0.000101784
-0.79392
9.28424e-05
7.26789
3.8364
0.000202904
-0.899587
-0.793219
-0.899459
-7.7184
-0.000474178
-2.08226
-1.89582
2.12472
1.8534
0.000435891
35.0458
-2.08188
0.00787921
-3.05401
3.85308
-3.05298
3.85412
34.8722
-0.461658
0.00591118
0.258934
0.0594539
0.260285
0.06065
34.8623
1.53714
0.00318171
-0.2791
-0.482837
-0.279219
-0.484429
34.9197
3.68189
0.00082876
-0.864581
-1.00289
-0.867584
-1.00572
34.2243
6.20372
2.62817e-05
-1.35768
-1.39741
-1.35854
-1.39687
33.2164
10.598
0.000631077
-2.14374
-2.65254
-2.14248
-2.65127
8.21845
19.2701
0.00155793
8.47896
8.21505
8.47457
-4.28219
-5.44376
-4.27584
-5.43702
-0.000826323
-8.82194
8.31408
0.000383449
2.15958
2.2033
2.16082
2.20306
35.3413
-2.31593
0.00611338
35.3023
-0.420292
0.00445161
35.2942
1.54629
0.00251639
35.2582
3.71702
0.000703707
34.9874
6.47327
5.67181e-05
34.7918
10.7926
0.00039775
8.98718
18.5113
0.00119805
8.79213
8.98402
8.78988
-7.52735
0.000172159
9.51078
7.0037
-0.000127986
-5.00578e-05
-2.76784
-2.70295
3.01417
2.45664
2.38723e-05
0.000329719
-3.30308
2.76642
0.538219
-0.00021364
-0.00168425
35.6761
0.00376219
35.675
0.00296547
35.6902
0.00178629
35.7095
0.000544071
35.7394
5.83096e-05
36.1271
0.000256217
38.4234
0.00106877
10.9116
0.000665619
-6.03467
-7.02442
-6.02968
-7.01764
10.4113
10.9092
10.4102
-7.07525
0.000326467
11.9423
6.0445
-0.000226014
-3.20157
0.00140028
-12.3017
12.2909
3.2117
-0.000722927
46.8447
-0.00047071
-4.82778
-4.32944
-4.82554
-4.32562
-0.00113153
-2.94048
-2.38297
-2.93599
-2.3808
-0.000804964
-0.276403
1.80457
0.52048
0.00066354
-0.000577068
0.0544482
-2.08952
-0.0732092
0.000487258
2.10837
-0.00034139
-0.0185473
-2.15661
2.16533
0.00987082
0.000300519
-0.00011904
-0.0766243
-2.05254
1.9721
0.157061
0.000117177
-6.80713e-06
-2.21165
1.95363
0.274043
2.49544e-05
-0.0160437
-7.04756e-06
-1.79958
1.74724
0.075925
1.65383e-05
-0.0235995
-0.767886
-0.00294815
7.6573
1.56283
0.00209864
0.397665
-0.00198528
8.60063
-0.429961
0.00145503
-8.56781
-0.17356
-0.00112381
-8.58117
8.52198
0.232986
0.000893661
-0.923645
-0.000380494
-8.50728
8.56649
0.864421
0.000396029
-1.10889
-2.34016e-05
-8.79567
8.67667
1.22777
0.000137523
-1.3473
-8.46173e-05
-8.3623
7.91513
1.79441
0.000143533
-0.792364
-0.000411869
7.26261
3.82937
0.000323495
-0.8989
-0.792172
-0.898897
-7.70956
-0.000175872
-2.08174
-1.89526
2.12442
1.85261
0.000143709
35.0351
-2.09749
0.00384769
-3.05059
3.85711
-3.05024
3.85742
34.8583
-0.46896
0.00323003
0.262457
0.0614603
0.263007
0.061483
34.8486
1.5397
0.00202578
-0.278674
-0.485468
-0.278586
-0.486058
34.9096
3.69141
0.00099302
-0.868475
-1.0073
-0.868774
-1.00804
34.2126
6.20744
0.000499131
-1.35889
-1.39666
-1.35866
-1.39674
33.1977
10.5923
0.000535857
-2.1403
-2.64912
-2.13925
-2.64861
8.21272
19.2507
0.000741472
8.47113
8.21174
8.46895
-4.27442
-5.43529
-4.27284
-5.43415
-0.000494269
-8.81283
8.30379
0.00031863
2.1581
2.20265
2.15862
2.20258
35.337
-2.33
0.00335313
35.296
-0.426102
0.00259
35.2888
1.54774
0.00165898
35.2567
3.72342
0.000811693
34.9853
6.47844
0.000417044
34.7849
10.7927
0.0004279
8.98076
18.5047
0.000514921
8.78695
8.97942
8.7844
-7.51881
-0.000507675
9.50222
6.99755
0.000307012
-3.24566e-05
-2.76608
-2.70161
3.01232
2.45536
4.40535e-05
7.85717e-05
-3.30247
2.76615
0.537998
-4.81454e-05
-0.00170174
35.6755
0.00238829
35.6737
0.00187061
35.6899
0.00123498
35.7113
0.000619798
35.7419
0.000322334
36.1284
0.000338639
38.4163
0.000481533
10.9065
0.00047589
-6.02916
-7.01743
-6.02679
-7.01554
10.4077
10.9045
10.4051
-7.06896
-0.000125775
11.9342
6.04133
0.000108945
-3.19458
0.000337536
-12.2932
12.283
3.20463
-0.00015253
46.8369
0.000118861
-4.82429
-4.32366
-4.82232
-4.32265
-0.000125309
-2.93359
-2.38004
-2.93193
-2.37974
-0.000370535
-0.276429
1.80435
0.520519
0.000310361
-0.000280478
0.0545176
-2.08929
2.10813
-0.0733215
0.000240529
-0.000192628
-0.0185057
-2.15637
2.16509
0.00980443
0.000169439
-9.5815e-05
-0.0766065
-2.0523
1.97189
0.157024
8.95858e-05
-4.37782e-05
-2.2115
1.95354
0.274007
4.60965e-05
-0.0160433
-2.80252e-05
-1.79952
1.74722
0.0758907
3.02692e-05
-0.0235985
-0.767444
7.65477
1.5622
0.00102548
-0.00140804
0.398465
-0.000992528
-8.56532
8.59806
-0.430955
0.000740733
-0.173313
-0.000660786
-8.57844
8.51914
0.232759
0.000520939
-0.923824
-0.000346064
-8.50416
8.56309
0.864934
0.000305814
-1.10887
-0.000166909
-8.79206
8.67308
1.22783
0.000179361
-1.34666
-0.000129405
-8.35896
7.9123
1.79331
0.000142307
-0.792025
-0.000190952
7.26098
3.8276
0.000171318
-0.898835
-0.791944
-0.898801
-7.70696
-6.88568e-05
-2.08169
-1.89518
2.12434
1.85254
6.01016e-05
35.0244
-2.103
0.00199707
-3.0495
3.85879
-3.04931
3.85888
34.8461
-0.471599
0.00177669
0.263955
0.0616664
0.264225
0.0615104
34.8355
1.54031
0.00124842
-0.27808
-0.486361
-0.277925
-0.486626
34.896
3.69395
0.0007786
-0.868602
-1.00845
-0.868451
-1.00872
34.1988
6.20705
-1.35832
-1.39669
-1.35802
-1.39682
33.184
10.5868
-2.13832
-2.64796
-2.13782
-2.64788
8.21114
19.236
8.4679
8.21076
8.4669
-4.27131
-5.43329
-4.27072
-5.433
-0.000228106
-8.81089
8.30142
0.000169852
2.15776
2.20245
2.15805
2.20241
35.3311
-2.3356
0.00182971
35.2891
-0.428544
0.00147353
35.2819
1.54812
0.00104457
35.2501
3.72593
0.000645571
34.9784
6.47881
34.7758
10.7894
8.97814
18.4923
8.78271
8.97759
8.7813
-7.51607
-0.000229515
9.49891
6.99536
0.000162718
-2.76845e-05
-2.76565
-2.70125
3.01177
2.45512
4.25207e-05
5.90048e-06
-3.30231
2.76611
0.537894
5.06449e-06
-0.00170621
35.6733
0.00138033
35.671
0.00111211
35.6871
0.000800982
35.7093
0.000502226
35.7394
36.124
38.404
10.9032
-6.02517
-7.01487
-6.02399
-7.01415
10.4037
10.9022
10.4022
-7.06685
-0.00011807
11.9302
6.03988
0.000118921
-3.19263
2.86931e-05
-12.2899
12.2795
3.20301
46.8248
-4.8213
-4.32197
-4.8202
-4.32173
-2.93115
-2.37926
-2.93039
-2.37929
-0.000184143
-0.276451
1.80426
0.520549
0.000157538
-0.000143436
0.0545507
-2.0892
2.10805
-0.0733869
0.000125134
-0.000108906
-0.0184975
-2.15626
2.165
0.00977315
9.56012e-05
-6.52584e-05
-0.0765883
-2.05221
1.9718
0.156999
6.00114e-05
-4.00038e-05
-2.21145
1.9535
0.274
3.89645e-05
-0.016042
-2.70329e-05
-1.79949
1.74721
0.0758813
2.78041e-05
-0.0235977
-0.767363
-0.00071398
7.65357
1.56209
0.000533761
0.39879
-0.000516793
-8.56419
8.59692
-0.431387
0.000391307
-0.173186
-0.000382056
-8.57719
8.51786
0.232609
0.00029656
-0.923716
-0.000245129
-8.50278
8.56168
0.864851
0.000205137
-1.10875
-0.000155622
-8.79063
8.67174
1.22766
-1.34639
-0.000112598
-8.35775
7.9113
1.79285
-0.791928
-0.000115327
7.26045
3.82697
-0.898824
-0.79183
-0.898781
-7.70605
-3.75207e-05
-2.0817
-1.89515
2.12434
1.85251
3.97454e-05
35.0167
-2.10545
-3.04908
3.85964
-3.049
3.85962
34.8379
-0.472965
0.264646
0.0616026
0.26482
0.0615203
34.8265
1.54049
-0.277618
-0.486697
-0.277444
-0.486818
3.69378
-0.868204
-1.00879
-0.868073
-1.00891
35.3262
-2.33825
35.2838
-0.429922
35.2766
1.54811
3.7263
35.6706
35.668
35.6839
-9.6604e-05
-0.276453
1.80422
0.520554
8.12737e-05
-7.62489e-05
0.0545722
-2.08915
2.10801
-0.0734151
6.714e-05
19.2709
-0.00312624
8.21771
8.47832
-4.28245
-5.44392
-0.0036484
8.98676
8.79212
-1.79997
1.74743
0.0760788
0.000192772
-0.0236369
-1.35557
-8.37912
7.93055
1.80143
0.0028976
-0.794142
3.45616e-05
7.2647
3.85035
0.00207361
-0.901911
-0.79545
-0.903082
-7.72257
0.00071279
-2.08254
-1.89591
2.12466
1.85347
-0.000410763
34.1848
0.00739677
-1.40355
-1.3239
-1.3976
33.0258
0.0170085
-2.13657
-2.67528
-2.18609
-2.878
8.2333
19.0292
0.00943233
8.4831
8.3428
8.48099
-4.2656
-5.48457
-4.29793
-5.50802
0.00163454
-8.82199
8.3243
-0.00536139
2.1629
2.20392
2.16117
2.20673
8.99619
0.0155828
8.78799
8.99097
8.85823
-7.53417
0.000371403
9.51742
7.00582
0.00674052
0.000252895
-2.76839
-2.70437
3.01529
2.45733
-0.000105041
10.9167
-0.0476937
-5.99739
-7.02533
-6.01025
-6.94832
10.4079
10.9145
10.4034
-7.0824
11.9468
6.0484
0.00346652
-0.000354394
-4.81346
-4.33713
-4.82362
-4.36648
-0.282759
1.80997
-0.00663473
0.52872
0.0508269
-2.09841
2.11458
-0.00216825
-0.0669349
-0.0291843
-2.15993
2.16398
-0.000616181
0.0251897
-0.0829931
-2.04393
1.96471
-0.00214457
0.163672
-2.23391
-0.00140156
1.97732
0.267802
0.000761231
-0.0105709
-1.8071
-0.000375231
1.74764
0.105651
0.000553015
-0.0463673
-0.873839
7.66357
1.68107
-0.0175339
0.360468
-8.59756
8.61858
-0.374634
-0.0128376
-0.292546
-8.61136
8.55907
0.350698
-0.00746774
-0.890937
-8.57465
8.61182
0.861227
-0.0105729
-1.0572
-0.004099
-8.77677
8.66869
1.15675
0.0126358
-1.63102
-0.00262716
-8.39367
7.97357
2.0552
-0.00146494
-0.837992
7.17957
3.85854
-0.013122
-0.897262
-0.851199
-0.863846
0.00852548
-7.58321
-2.08535
-1.87748
-0.0208382
2.09672
1.86843
0.0185082
34.685
-1.3484
-3.18029
3.79608
-3.35966
3.80662
34.5599
-0.418025
0.253826
0.0112683
0.212628
0.0548109
34.8586
1.43569
-0.342814
-0.566938
-0.385861
-0.441381
34.9475
3.64286
-0.852257
-1.03263
-0.872275
-0.982472
33.9422
6.15537
-1.25982
-1.29874
-1.2878
-1.29904
34.8299
11.1625
-2.33376
-3.71396
-2.39474
-3.58528
8.30703
21.0144
8.45176
8.49734
8.4005
-4.41315
-5.39755
-4.40713
-5.60455
-8.92575
7.96309
-0.00619999
0.0107366
2.13933
2.3683
2.14607
2.61146
35.4286
-1.68064
35.3899
-0.386603
35.3666
1.4559
35.3003
3.7055
35.0158
6.44297
34.8361
11.3515
8.98776
19.07
9.40392
8.98346
9.42391
-7.23118
-0.00187483
9.53889
6.6938
-0.0118727
-2.68898
0.00422032
-2.83118
3.04339
-0.0130283
2.48557
-3.32225
2.77324
0.529895
-0.00147672
0.0212791
35.758
35.7598
35.7635
35.7702
35.7844
36.1834
39.1711
10.9223
-6.39765
-6.34385
-6.37804
-6.43508
10.4102
10.9365
10.4323
-7.15768
0.00165332
11.9527
6.14602
-0.0204161
-3.18877
-12.3068
12.2692
3.2212
0.00993515
46.9083
-4.90579
-4.3417
-4.89734
-4.32506
-2.8869
-2.57739
-2.92314
-2.53661
-2.16729
-0.428793
1.94781
-0.0232453
1.90122
1.06279
-0.941819
-1.96095
-0.0687061
-1.80868
-0.000710662
1.74869
0.0977874
-0.0367041
0.00980222
-0.00879451
-1.44578
1.62238
-0.17762
7.70535
-8.31336
-0.000708387
-0.283984
-0.172028
-0.197971
-0.262545
1.52531
-0.0139224
-0.0226013
0.0140948
0.0223603
1.85582
-0.00165799
-0.520384
-0.932144
-1.19797
-0.440729
1.86121
1.92461
1.93748
3.22386
0.0170883
0.0319789
-0.0302374
-0.023574
-0.855629
1.8607
0.0161179
0.358331
1.45809
-1.56499
0.0713267
0.367839
0.378209
0.612048
-0.376729
-0.402112
-0.587929
-0.3063
0.835856
-0.0464866
0.0751095
-0.842199
1.83353
2.12205
1.44512
0.0147939
-0.0232647
-1.88217
-1.67653
-0.43103
0.314038
0.0186474
2.08347
0.00684349
-0.0171262
0.048855
-1.863
-1.92163
1.79295
0.0577976
-1.88145
0.0219945
2.10032
1.86531
8.9109
-7.3832
-0.0143123
-0.02365
0.00349293
0.00575512
-0.0125934
-3.36454
-2.03503
-2.07984
-3.29675
2.83364
1.80903
1.80694
2.84016
-0.683296
0.700427
-0.0179587
0.0060726
0.0433749
2.23956
2.16597
2.17112
2.22656
2.78204
2.17401
-2.54931
-2.33653
-0.00886045
7.93157
2.14529
2.37275
2.62448
2.15001
0.00514082
-0.0160761
-3.60057
3.34072
0.270782
9.20343
7.21618
0.0101317
2.57006
9.25548
0.0151979
0.0427117
-0.0230294
-0.0170464
0.00367721
-2.67627
-2.57097
-2.37982
-2.62764
2.58542
2.5149
2.51077
0.0345916
-1.36931
-0.887364
-0.869247
-0.808471
1.56803
0.735002
0.752265
0.782046
0.681283
-0.58057
0.0284973
-0.0847451
2.69751
-0.0134675
0.0185216
-5.07561
4.94311
-3.1778
-1.18902
2.98731
-0.0494795
0.811754
-3.21475
0.0356955
-3.32132
0.000759566
2.77358
0.551886
-0.00316898
-12.737
3.27525
-0.0031767
-0.651292
-0.717903
-0.742904
-0.636082
-0.0240853
-0.0354401
0.0255264
0.034198
3.12364
2.9625
2.98913
3.13759
0.747552
0.0207303
-0.045568
-0.777747
-3.15888
1.66429
0.00464772
-0.211809
0.538427
-0.0948229
0.0462141
-0.502387
0.00331983
0.293245
0.00622368
-0.00928895
1.63909
-0.0974481
1.82786
-0.0778202
0.00290516
-0.00257521
-1.78477
0.0343958
-0.029503
0.512401
-0.00284918
0.551761
-0.0762354
0.0320727
-0.518528
0.00316457
-0.0478469
0.0019727
-0.00202509
1.85191
0.0238481
1.88256
0.0157851
0.000904384
-0.000811948
-1.8662
-0.0322374
-0.0435818
0.523841
-0.00305203
0.571894
0.154828
-0.757816
0.0132109
0.0156447
0.0206315
0.000860305
-0.00110843
1.886
-0.023835
1.81167
0.0166861
0.000701458
0.00259346
-1.84382
0.0121627
0.513402
-0.015739
-0.0144992
0.379913
0.0135618
-0.395302
0.00515506
-0.00211984
0.0775971
9.79287e-05
0.00199131
1.72887
0.00311211
0.366914
0.000629047
-0.00142984
0.491494
0.476708
0.49512
0.0806987
0.00290496
-0.521294
-0.483991
-0.48635
-0.515594
-0.0101024
-2.22086
-0.393571
2.06553
-0.0300235
-0.0124465
-0.0952102
0.0198873
-2.04368
-2.23325
0.00263394
1.97771
0.270087
-0.0150684
-0.000208445
-0.000179472
0.0526031
-1.84222
-0.0186828
8.79478
-8.96085
-0.00562715
-0.167067
-0.309983
-0.292075
-0.151466
1.0797
-0.0110898
-0.0284539
0.0187427
0.0333781
-0.00169628
-0.107831
-0.125468
-0.150437
-0.132614
0.99879
0.0275365
-0.0137075
0.0137622
-0.0269133
-0.207364
-1.97847
-0.0112522
1.924
0.0235439
0.249547
0.438531
-0.410255
-0.0103123
0.00585732
-0.0022215
-0.00990722
1.93495
0.0414014
-0.0830823
-0.0738119
0.0400939
-2.08002
0.252789
1.76223
0.105209
0.00722419
-0.0221137
0.0601786
0.000745154
-1.87739
0.000171842
-0.0362612
1.61279
-0.00750674
0.0509002
-0.0519062
0.00101293
-0.00358422
-0.0468426
-2.09586
-0.0236742
0.236359
0.469179
-0.0991472
0.00625511
0.000345542
-0.0965051
0.22894
0.470255
0.462696
0.460968
-1.8134
1.50341
0.35154
-0.0711441
-0.0916955
0.145181
-0.0122271
-0.0116304
-0.475947
0.222433
-0.218772
0.0217286
0.451452
-2.43702
0.815529
0.0704706
-0.0278127
-0.329212
0.0366593
0.0579819
0.628555
0.124585
-0.00328042
-0.342796
-0.427177
-1.71636
1.59736
-0.0296728
7.42531
-0.0685558
-7.99665
0.0621313
1.78921
1.82635
1.73245
-1.70734
-1.34624
-1.39092
-1.03516
7.18838
3.83679
-0.841228
-0.893008
-0.851041
-7.59426
5.28471
-1.43309
-1.17863
-1.1961
1.878
1.69346
1.67546
0.00885989
-0.0171548
0.0231654
0.0224014
-0.00903038
7.55741
-0.164808
-8.01416
0.177297
-1.88823
-1.69897
3.50934
0.00145058
0.289722
-0.0542848
-0.0136405
-0.0447111
-0.100693
-0.0064213
1.82502
0.500185
0.347909
0.344532
0.434746
-1.74614
2.10292
1.95956
-2.31337
0.0240747
-1.75821
0.00382984
-0.171712
0.180831
-0.0110929
0.212807
2.02972
-0.000991353
-1.77456
0.657323
0.610168
-0.0141133
-0.931402
-0.343169
-0.726871
0.870133
-1.00333
-0.0184724
0.857709
-3.27058
2.93326
0.0619387
-0.329593
0.291166
0.00137347
0.31244
-0.744276
0.247509
-0.014032
0.0376061
-11.4186
-1.99081
-2.11244
-2.14821
-1.96099
3.05015
3.00463
2.94357
3.12928
1.23679
-1.20261
-0.0482599
-3.13924
-2.82691
-0.0156681
3.04536
2.49021
-0.00564281
0.00602889
-4.53641
1.25786
-0.0431589
12.3392
-11.2245
0.00525031
-2.034
-2.08628
-2.087
-2.03242
7.15734
-0.0112664
-1.22996
-1.23381
-1.52773
-1.52166
5.06565
0.0562836
-0.00727898
0.0292941
-0.0173022
-0.549285
-3.12765
-0.029774
3.04033
0.0431971
0.623185
-0.584985
0.0144047
0.546291
0.0524735
-0.0131072
3.05849
-3.21883
-0.0645955
-0.36433
-0.337837
-0.0906649
1.03522
2.81605
0.675733
-3.48765
0.0180191
0.0120256
-0.0917519
-0.0108212
0.0827058
-0.0143075
2.4168
-0.0196942
0.181902
-0.0821389
-0.0858052
-0.0209127
-0.123388
-3.31975
-0.0403014
0.89503
0.754218
-0.258997
-0.142519
-0.104122
-0.253698
0.677385
0.748826
0.772167
0.761484
0.00925593
-1.4442
1.62851
-0.00904934
-0.184516
7.69815
-0.00695748
-8.31326
-0.00163382
-0.34075
-0.177932
-0.282378
-0.206249
1.85364
-0.0066641
-0.545613
-0.940685
-0.452047
-1.21057
1.92148
1.85777
1.93279
3.25363
0.0281576
0.0358566
-0.0209166
-0.00869107
-1.91818
1.85893
0.151301
-0.00342735
-0.1286
-8.34869
-0.258215
-0.324105
-0.381338
-0.22872
1.75443
1.93745
2.01525
1.94461
1.87709
1.89425
1.04851
-0.911915
-1.95236
-0.0712324
-0.0461599
-0.844836
1.83167
0.0749712
2.12037
1.45018
0.0161596
-1.88416
-1.67528
-0.0272732
0.892422
-0.8838
1.87085
0.0154199
0.356195
1.32255
-1.58206
0.00184991
0.365932
0.375345
0.631125
-0.379584
-0.288488
-0.376942
-0.433579
0.00800021
-0.0191824
0.0462087
0.435999
-0.409632
0.313993
0.0160708
-7.37512
-0.00709484
-3.37778
-2.03864
-3.29873
-2.07731
2.82334
1.80958
2.84325
1.80569
-0.0179092
-0.0116485
0.00763188
-0.0110307
-1.66944
1.76551
0.0138541
-0.725388
-0.475873
-0.660459
0.686693
0.404482
0.362984
0.723887
2.08325
-1.86509
-2.08417
1.82052
0.0519974
0.00441698
-3.59948
3.33912
-0.0148868
0.27083
9.18919
-0.0142376
0.00871371
0.00637293
2.56887
0.0061035
-2.67305
-2.5702
-2.62685
-2.35873
2.51581
2.58931
2.5131
9.21844
8.11084
2.44415
2.14223
2.11497
2.79682
-2.48549
-2.40263
-2.15102
-0.679771
0.693361
-0.0226552
0.00386721
9.25323
7.27208
2.67555
-2.75643
-2.53426
-2.64984
-2.49992
2.45011
2.64409
2.41593
9.48071
-0.0146412
-5.06943
4.93953
0.0244324
2.82512
-4.31575
0.366091
0.736919
0.794917
1.50706
0.760387
0.569143
-0.586525
0.0179391
-0.0450595
0.0296181
-12.7605
-0.661417
-0.696576
-0.63234
-0.688163
3.14501
2.96305
3.14448
2.97234
0.760488
-0.789705
-3.15922
-0.0426709
-1.08148
3.02053
0.747474
-0.00983515
-0.775403
-1.05216
-0.778407
-0.0720562
-3.08201
-0.835209
-0.742351
-0.80385
-0.700773
3.25637
3.0259
3.15634
3.13834
2.99595
-3.18268
-3.03762
-3.1281
0.834771
-3.19302
0.0341914
-0.420063
1.89606
-0.0303709
0.513025
-0.0178393
-0.00909872
-0.00613289
-0.00157944
0.01196
0.409975
0.0442689
0.109504
-0.0993889
-0.00772785
-0.470038
-1.33379
1.7334
0.0370379
0.21893
0.0413757
-0.696953
0.0732889
-0.0658477
0.0217317
-0.0217958
-0.148439
-0.0180766
1.18125
0.014731
0.0323915
0.0047794
-0.0226245
0.151799
5.40658e-05
-0.1695
0.476708
1.13924
-0.00534
0.12348
-0.0381716
0.285053
0.186207
-0.0217262
0.415846
9.56324e-05
1.80827
1.0018
-1.70199
-0.00613924
0.0279228
0.0073584
0.0277101
-0.0255814
0.464618
-0.00615027
-0.42963
-0.0261263
0.000173962
-1.77701
0.971255
-0.167192
-0.217371
-0.201013
-0.162854
-2.07071
-1.63145
2.16974
0.0105525
1.5932
-0.0313409
0.0140116
-0.258017
0.170223
0.014488
-0.171696
-1.76325
-0.0161813
1.14996
-0.442671
0.00262352
0.424884
0.2068
0.0169263
-0.0285631
0.104697
-0.259372
0.0226794
0.693333
0.00357668
-0.0879744
3.04591
-2.86695
0.254626
-0.554435
0.117798
0.00304576
0.712803
-0.482045
0.542069
0.00706232
-0.787479
3.76424
-1.77137
-0.00543561
-0.0218864
0.00129357
0.0114723
0.371306
0.696328
-0.371004
0.00796423
1.07291
-0.00157777
-2.80202
2.4939
0.0161277
2.72385
-0.0280425
-0.00348204
2.37935
0.624299
0.580989
1.18372
0.617277
-0.735554
-0.691569
-1.14203
0.618031
-0.704937
0.0132135
-0.625858
-3.45862
3.26776
0.00763494
0.023734
0.16135
-0.406584
-0.0108877
0.415624
0.00419109
2.51456
0.00721715
0.00874679
0.0252603
-0.0489405
-0.0157507
2.58529
0.590418
0.536064
0.545506
0.566501
-0.639225
0.912111
-0.00463153
0.584121
0.813837
0.564279
-0.826399
-0.0246494
-0.531875
-4.91768
4.7827
-2.78643
0.0245458
2.93145
-2.53542
0.360669
0.00250245
-0.0381613
0.0068878
0.00373634
0.215358
2.96676
0.0420494
2.35965
-0.604066
0.0274671
-0.0187991
0.0955309
-0.0858946
0.511886
1.14831
-0.0236479
-0.816588
2.86995
0.0322483
0.36755
-0.107612
-0.0513561
-0.143993
-2.14464
0.948386
-0.0400346
0.150049
-0.00699975
0.0265979
0.0329474
0.256208
0.0455312
-0.0532204
0.0236403
0.276088
-0.000949957
-0.296979
0.75242
-0.0622218
0.0890645
-0.0561121
-2.03333
-0.000310417
-0.0987104
8.23342
0.0315046
0.516607
-1.02008
0.444845
-1.00463
0.0149167
8.56303
0.132519
0.170854
0.155496
0.13063
-0.932117
-0.00799377
1.81187
0.538655
2.10219
0.00329172
-0.00334646
-2.05839
-0.121571
7.97526
0.0244494
0.961291
0.662114
-0.954817
0.70656
-0.967406
8.39662
0.0144904
0.138722
0.157801
0.149819
0.156942
-1.02422
-0.0861051
0.069564
-0.0797792
-2.11165
-0.000764847
0.00859873
8.66195
0.00951803
0.0594505
0.0624984
0.0700708
0.0667594
0.0018928
8.66058
0.0166393
0.0237497
0.0142974
0.00699109
-0.0621241
-0.00248166
2.11775
-0.0629171
2.16331
0.001378
-0.00121327
-2.13839
-0.00930656
8.48286
0.00771862
0.0499577
0.0864405
0.084752
0.0527878
-0.358381
8.49256
0.00414511
0.0326166
0.00665999
0.00421007
0.0334314
-0.0888722
-0.19576
-0.0494089
-0.224678
-2.09981
0.0415989
0.378795
0.552685
0.579492
0.572461
8.61794
0.00748574
-0.0522708
-0.0425225
-0.0298621
-0.0594586
0.0269287
2.0915
-0.0868646
-0.193451
-0.121647
-0.128428
0.719166
2.12103
2.07809
2.08917
-0.00145541
2.16618
0.0182203
2.04611
0.00082524
-0.000520595
-2.09909
0.0693596
8.41929
0.00431632
-0.0532429
-0.011933
-0.0159349
-0.0455566
0.203107
8.35564
0.00508856
-0.0714023
-0.121767
-0.120427
-0.0609171
0.459997
-0.48564
-0.00942942
0.0310208
-0.35877
2.04828
-0.0209994
0.278069
-0.272852
-0.0338674
-2.17725
0.000369724
1.96519
0.158828
-0.00437098
0.00577562
-2.85513
0.57639
0.0440795
8.43304
-0.00340074
-0.269231
-0.180297
-0.19024
-0.304463
0.842717
-0.0124506
-0.00684019
0.0263578
0.0204553
-0.00551302
-0.438962
-0.417728
-0.455415
-0.480122
1.25681
0.0296378
-0.0103909
0.0163577
-0.0224817
0.0293993
-0.478817
-0.00206938
0.500112
0.000103216
-0.0152418
0.487523
0.00737932
-0.00112957
0.482794
0.426723
0.0578929
-0.0299005
0.493077
0.0233259
0.502923
-0.00813435
-0.371854
0.40081
-0.0179354
-0.444122
0.566886
-0.130891
7.99854
-0.0554821
-2.30911
-2.14347
-2.17321
2.79837
2.6087
2.6093
9.83302
-0.0536609
0.078677
9.52078
6.69892
7.79792
-0.00285514
2.90118
2.59739
2.60023
9.77062
-0.132345
0.0888648
3.12675
0.040865
-0.724535
-0.758876
-0.756063
12.3314
-0.122861
-11.9774
0.142074
12.2586
3.31175
-12.2955
2.57343
0.00505443
-0.758287
-0.656801
-0.678113
12.2664
-0.0780833
-11.9845
0.0854457
1.63741
-0.00685841
-0.0862449
1.82444
-0.0833263
-1.78123
-0.00324547
0.0404555
0.350755
1.67227
0.00669434
-0.182216
1.95541
-0.0547947
-1.9049
-0.00287484
0.00131221
1.8489
-0.00213235
0.0265174
1.87987
0.0199444
-1.8632
-0.000703738
-0.0367862
-0.0433477
1.98613
0.00101816
0.0107768
2.00275
0.0172621
-2.00251
0.000424082
-0.0178512
1.8838
-0.000188145
-0.0334461
1.80966
0.0305734
-1.84085
0.00278545
-0.00296061
0.0265816
1.99886
0.00140344
-0.0224735
0.567301
0.13946
-0.736059
0.014692
0.016906
1.72797
-0.000100558
-0.00273056
0.0872755
0.524963
-0.0666292
0.0107986
0.379744
0.0141395
-0.393984
0.00135549
-0.00247534
0.0141233
0.366807
-0.0014872
-0.00106701
-0.000505168
0.0438488
-0.000502459
-1.84053
-0.00940725
8.77558
0.0301787
-8.96994
-0.00564881
-0.138387
-0.311224
-0.135492
-0.302268
0.00269848
-0.00221628
-0.0961456
-0.102117
-0.099624
-0.110529
0.870246
-0.478266
0.460814
0.0271053
0.0029872
0.108042
0.00770079
-2.03563
0.00752443
8.80374
-2.11621
-0.259197
-0.245034
-0.198457
-0.299308
0.830607
-2.19462
-2.08583
-2.20497
-0.14694
-0.114602
-0.180106
-0.0785536
0.981304
5.31818
1.68891
1.87345
1.66751
-1.18356
-1.43229
-1.19387
0.0124071
-0.0226124
0.0162197
0.00378949
0.00413787
7.55384
0.0685543
-0.166296
-8.01071
-0.0791607
0.178503
4.13898
-7.96255
-0.769177
-0.90424
-0.826546
1.83084
1.77058
1.82038
1.78173
-1.71622
1.39639
-0.0346455
7.78114
-7.98054
1.78788
1.82825
1.7297
-1.46479
-1.13619
-1.11806
-1.41793
-0.00243544
-4.53464
1.24454
-0.00175036
-0.027965
12.3237
-0.0331183
0.00596094
-11.227
-2.03238
-2.08207
-2.03176
-2.08099
0.000723371
-1.22088
-1.20941
-1.51883
-1.51615
5.03708
0.0348336
-0.0395418
0.0209184
-0.0255293
-2.72403
3.07549
-0.014643
2.49141
-0.738338
0.251997
-0.015451
-11.4351
7.45598
-2.10629
-1.92529
-1.97658
-2.14261
3.00055
3.12221
3.03695
2.93783
1.28571
-1.19152
-0.0789659
-3.12174
0.42532
0.0189026
-0.541298
0.156279
-0.0221666
0.00786728
-0.43292
0.0949388
-0.0481101
0.329735
-0.121747
-0.517858
0.137019
-0.036946
-1.88078
0.54703
-0.016354
-0.00034375
-0.0210285
1.77242
-0.349068
-0.198641
-0.0891675
-1.7441
-0.0176396
-0.531795
-0.786456
1.90201
-0.0317597
-1.93736
0.0218774
-1.89462
0.0318789
-0.00711312
-0.184097
-0.226776
0.435525
0.434486
0.430913
0.349714
-0.364136
0.0157558
0.0155932
0.0123965
0.404526
-0.478998
-0.0400646
-0.425119
0.0454646
0.316071
-0.448091
0.05913
-0.447155
-0.00366196
-1.67994
2.39702
-0.089009
0.0131943
1.68087
-0.10173
-2.39459
0.468277
0.408751
0.3576
-2.09892
1.70396
-1.06449
-0.62391
-0.626995
0.833577
0.466705
0.476633
-0.01899
0.802234
-0.92006
0.0897673
0.597731
-0.821003
0.204279
0.549834
-0.739445
0.00130952
0.820236
0.0084938
0.705168
-0.0145021
-0.51216
1.19795
0.0339873
0.634521
-0.643916
0.0151688
1.33046
0.000741397
0.808452
2.38059
2.58885
0.00916541
-0.00800818
-2.3318
0.603922
0.615831
0.579017
-0.677832
-0.657377
-0.710924
-0.00236315
-2.50217
-2.32869
-2.56735
0.0190108
-0.772054
0.198388
-0.0317199
-0.44482
0.450028
0.0232928
-0.714133
0.321416
-0.0330914
-0.00306035
-0.858338
0.162467
-0.618171
0.0401686
0.803762
0.0176476