/*--------------------------------*- C++ -*----------------------------------*\
  =========                 |
  \\      /  F ield         | OpenFOAM: The Open Source CFD Toolbox
   \\    /   O peration     | Website:  https://openfoam.org
    \\  /    A nd           | Version:  10
     \\/     M anipulation  |
\*---------------------------------------------------------------------------*/
FoamFile
{
    format      ascii;
    class       volVectorField;
    location    "0";
    object      U;
}
// * * * * * * * * * * * * * * * * * * * * * * * * * * * * * * * * * * * * * //

dimensions      [0 1 -1 0 0 0 0];

internalField   nonuniform List<vector> 
8792
(
(0.340016 0.0282325 0.000469538)
(0.380539 0.00182569 0.000235521)
(0.382765 -0.000965574 -6.52159e-06)
(0.381859 0.0275409 0.00409789)
(0.381516 0.0147185 0.00287246)
(0.360775 0.0254342 0.00349871)
(0.358771 0.0174531 0.000335774)
(0.387051 -0.00543389 0.000291333)
(0.387977 0.00357037 0.000132617)
(0.38716 0.00887803 0.000469547)
(0.381565 0.019396 -0.000242511)
(0.368236 0.032116 -1.63022e-05)
(0.337823 0.0625101 0.000374651)
(0.287159 0.134116 0.00209702)
(0.390087 -0.0097211 0.000725279)
(0.392825 -0.00187711 6.23744e-05)
(0.392212 0.00633295 3.92398e-05)
(0.39019 0.0147961 1.7402e-05)
(0.385345 0.0262712 -3.07106e-05)
(0.376705 0.0456539 -8.52204e-05)
(0.369277 0.0866456 5.09334e-05)
(0.370604 0.1588 0.000525032)
(0.394344 -0.0120124 3.64869e-05)
(0.396021 -0.00185332 4.12925e-05)
(0.395765 0.00659114 2.68304e-05)
(0.394555 0.0158701 1.34888e-05)
(0.392022 0.0283171 -1.4971e-05)
(0.389053 0.0483637 -3.85857e-05)
(0.391438 0.0852958 -6.01018e-05)
(0.410313 0.141645 0.000447703)
(0.515842 0.200122 -0.00205081)
(0.595761 0.0952779 0.00432964)
(0.398943 -0.0129255 -1.39428e-05)
(0.399506 -0.00191596 2.33002e-05)
(0.399496 0.00672516 1.69289e-05)
(0.399148 0.0163753 7.52213e-06)
(0.398759 0.0290376 -6.94346e-06)
(0.400342 0.0481265 -2.03894e-05)
(0.412635 0.0790612 5.45317e-05)
(0.447019 0.115274 0.000242437)
(0.508092 0.125954 0.000534322)
(0.549154 0.0665818 -0.000293552)
(0.5052 0.0798745 -4.43459e-05)
(0.536099 0.0486197 -4.66691e-05)
(0.339447 0.0319406 0.000936827)
(0.380363 0.00204655 0.000352409)
(0.383433 0.000316201 0.000152885)
(0.387821 0.00908388 -0.000133123)
(0.385993 0.0163744 -0.00032546)
(0.366746 0.0206513 -6.34558e-05)
(0.358044 0.0233182 0.00041201)
(0.386952 -0.00493969 0.00024059)
(0.38844 0.00406661 0.000119551)
(0.386665 0.0110772 -8.46956e-05)
(0.381907 0.0210173 -0.000168829)
(0.36862 0.0331792 -8.72515e-05)
(0.342936 0.0627121 0.000119762)
(0.305353 0.140095 -0.00263785)
(0.389539 -0.00764642 0.000357231)
(0.392931 -0.00201574 0.000118938)
(0.392249 0.00615543 8.10372e-05)
(0.390246 0.0150241 -4.07026e-05)
(0.385593 0.0265105 -5.89645e-05)
(0.377599 0.0460087 -7.99637e-05)
(0.371773 0.0854477 2.64794e-05)
(0.370305 0.156159 0.000289938)
(0.394415 -0.0097889 6.62069e-05)
(0.396125 -0.00195935 7.78538e-05)
(0.395844 0.00650356 5.02685e-05)
(0.394658 0.0159644 -1.2649e-05)
(0.392246 0.028429 -3.16713e-05)
(0.389436 0.0484103 -2.90881e-05)
(0.390806 0.0843993 -4.08236e-05)
(0.409311 0.136873 -0.000210415)
(0.513361 0.197702 0.000349604)
(0.577188 0.0739518 -0.000293034)
(0.399035 -0.0107401 -6.45553e-06)
(0.399637 -0.00199905 4.34002e-05)
(0.399599 0.00667223 2.98517e-05)
(0.39927 0.0164059 -4.56137e-06)
(0.398962 0.0290725 -1.66984e-05)
(0.400675 0.0480965 -2.01959e-05)
(0.412933 0.078627 3.11693e-05)
(0.447774 0.113402 0.000220208)
(0.504728 0.12419 -9.52854e-05)
(0.550184 0.0684336 -0.000158943)
(0.504651 0.079643 -2.36135e-05)
(0.535356 0.0480332 3.75414e-05)
(0.339416 0.0318442 0.000326787)
(0.380073 0.0018006 0.0002118)
(0.383347 0.000166701 0.000102324)
(0.38757 0.00890714 1.37643e-05)
(0.386048 0.0162937 -3.50474e-05)
(0.366818 0.0205588 -1.49131e-05)
(0.358047 0.023056 0.00025222)
(0.386786 -0.00527857 0.000154585)
(0.38836 0.00382131 7.14947e-05)
(0.386544 0.0109397 1.75275e-06)
(0.381921 0.0208727 -3.07606e-05)
(0.36865 0.0329985 -1.12893e-06)
(0.343508 0.062433 2.06285e-06)
(0.307397 0.139625 7.7735e-05)
(0.389488 -0.00775686 0.000154671)
(0.392856 -0.00211069 9.21813e-05)
(0.392186 0.00612344 4.6922e-05)
(0.390203 0.0150413 8.18084e-07)
(0.385604 0.0265377 -1.13171e-05)
(0.377673 0.0459376 7.76806e-06)
(0.371952 0.0854134 2.767e-05)
(0.370639 0.155212 2.96313e-05)
(0.394396 -0.0098629 9.26986e-05)
(0.396089 -0.00204692 6.52037e-05)
(0.395806 0.00646762 3.55593e-05)
(0.394632 0.0159766 3.00645e-06)
(0.392256 0.0284509 -6.52414e-06)
(0.389522 0.0483866 -8.53991e-07)
(0.390942 0.0843211 2.93431e-05)
(0.409713 0.135787 -5.50483e-06)
(0.513543 0.197298 -3.00267e-06)
(0.577197 0.0737887 -5.5635e-05)
(0.399035 -0.010756 4.45995e-05)
(0.39963 -0.00207397 4.02986e-05)
(0.399579 0.00663876 2.41089e-05)
(0.399255 0.0164098 3.21433e-06)
(0.39897 0.029086 -3.66772e-06)
(0.400743 0.0480826 -3.04609e-06)
(0.413028 0.0785253 2.56143e-05)
(0.447712 0.113483 1.34431e-05)
(0.504721 0.123779 -1.14921e-05)
(0.550239 0.0681925 -5.05667e-05)
(0.504615 0.0796904 -1.33538e-05)
(0.535307 0.0480433 -1.75612e-05)
(0.339385 0.0318445 0.000136209)
(0.379995 0.00178304 9.96074e-05)
(0.383282 0.000157964 5.90865e-05)
(0.387514 0.0089029 2.35564e-05)
(0.386037 0.0162941 3.93891e-06)
(0.366833 0.0205625 2.49955e-06)
(0.358023 0.0230131 0.000117273)
(0.386727 -0.00531675 7.99581e-05)
(0.388307 0.00380018 4.75384e-05)
(0.386502 0.0109348 1.8267e-05)
(0.381912 0.0208746 3.8256e-06)
(0.368657 0.0330034 5.77209e-06)
(0.343523 0.0623962 1.75816e-05)
(0.307377 0.139595 2.87455e-05)
(0.389467 -0.00782018 6.79239e-05)
(0.392822 -0.00215087 5.31102e-05)
(0.392152 0.00610569 3.0426e-05)
(0.390178 0.0150388 1.06845e-05)
(0.385593 0.0265375 3.30136e-06)
(0.377665 0.0459331 7.11119e-06)
(0.371933 0.0854111 1.31625e-05)
(0.370605 0.15519 1.79117e-05)
(0.394382 -0.009935 5.48029e-05)
(0.396065 -0.0020899 4.07823e-05)
(0.395779 0.0064473 2.42529e-05)
(0.394611 0.015973 8.80782e-06)
(0.392244 0.0284523 2.80792e-06)
(0.389513 0.0483864 4.85412e-06)
(0.390913 0.0843303 9.97997e-06)
(0.409695 0.135799 1.78195e-05)
(0.513538 0.197302 -2.36912e-06)
(0.577178 0.0737872 -1.29043e-05)
(0.399027 -0.0108233 3.56292e-05)
(0.399616 -0.0021154 2.79778e-05)
(0.39956 0.00661797 1.75127e-05)
(0.399238 0.0164051 6.73505e-06)
(0.398959 0.0290879 2.20023e-06)
(0.400735 0.0480864 3.42244e-06)
(0.413016 0.0785385 8.83811e-06)
(0.447691 0.113506 4.97358e-06)
(0.504729 0.123806 6.56791e-06)
(0.550237 0.0682032 -1.15986e-05)
(0.504615 0.0797048 -2.32725e-06)
(0.535312 0.0480566 -7.69202e-06)
(0.339374 0.031848 6.40019e-05)
(0.37997 0.0017762 4.87898e-05)
(0.383255 0.000154831 3.32971e-05)
(0.387492 0.00890114 1.84992e-05)
(0.38603 0.0162937 9.66696e-06)
(0.366836 0.0205625 6.23409e-06)
(0.358007 0.0230063 5.66136e-05)
(0.386709 -0.0053308 4.03125e-05)
(0.388285 0.00379242 2.78468e-05)
(0.386485 0.0109316 1.52942e-05)
(0.381906 0.0208746 7.92532e-06)
(0.368658 0.0330025 6.55354e-06)
(0.343525 0.0623941 8.39469e-06)
(0.307374 0.139594 1.2803e-05)
(0.389458 -0.00784389 3.37835e-05)
(0.392807 -0.00216763 2.91002e-05)
(0.392137 0.00609599 1.91371e-05)
(0.390166 0.0150344 1.03487e-05)
(0.385585 0.0265351 5.96753e-06)
(0.377659 0.0459311 5.8057e-06)
(0.371926 0.0854088 6.71509e-06)
(0.370594 0.155191 8.3128e-06)
(0.394375 -0.00996308 2.99824e-05)
(0.396053 -0.0021097 2.35371e-05)
(0.395766 0.0064358 1.57085e-05)
(0.394599 0.015968 8.46574e-06)
(0.392235 0.0284504 4.91211e-06)
(0.389504 0.0483863 4.58834e-06)
(0.390897 0.0843338 4.78172e-06)
(0.409685 0.135811 8.20229e-06)
(0.513534 0.197304 -3.16332e-06)
(0.577169 0.0737866 -1.00144e-09)
(0.399022 -0.0108532 2.18272e-05)
(0.399607 -0.00213624 1.72555e-05)
(0.399549 0.00660563 1.18027e-05)
(0.399228 0.0163998 6.49453e-06)
(0.398951 0.0290867 3.78679e-06)
(0.400727 0.0480883 3.61195e-06)
(0.413007 0.0785472 4.32797e-06)
(0.447684 0.113514 3.73188e-06)
(0.504729 0.123818 7.16406e-06)
(0.550235 0.068208 2.19086e-07)
(0.504619 0.079711 2.03905e-06)
(0.53532 0.048062 9.86684e-07)
(0.339369 0.0318501 3.28879e-05)
(0.379961 0.00177299 2.51559e-05)
(0.383244 0.000153396 1.87789e-05)
(0.387483 0.00890008 1.25116e-05)
(0.386025 0.0162933 8.58264e-06)
(0.366836 0.0205624 5.86119e-06)
(0.358 0.0230057 2.90943e-05)
(0.386702 -0.00533726 2.11324e-05)
(0.388276 0.00378864 1.59885e-05)
(0.386477 0.0109293 1.05524e-05)
(0.381902 0.0208736 6.7627e-06)
(0.368657 0.0330018 5.21279e-06)
(0.343525 0.0623928 4.84454e-06)
(0.307374 0.139594 8.4904e-06)
(0.389453 -0.00785405 1.76153e-05)
(0.392801 -0.00217541 1.60126e-05)
(0.39213 0.00609063 1.1644e-05)
(0.39016 0.0150311 7.61426e-06)
(0.394371 -0.0099754 1.64407e-05)
(0.396047 -0.00211937 1.33168e-05)
(0.395759 0.00642929 9.73453e-06)
(0.394593 0.0159642 6.3225e-06)
(0.399019 -0.0108672 1.25849e-05)
(0.399602 -0.00214695 1.01203e-05)
(0.399543 0.00659843 7.49174e-06)
(0.399223 0.0163957 4.92741e-06)
(0.339366 0.0318506 1.78693e-05)
(0.379958 0.00177165 1.34689e-05)
(0.371942 0.0854201 -2.96645e-05)
(0.390934 0.0843269 -3.07223e-05)
(0.366823 0.0205604 3.13814e-05)
(0.368641 0.0329737 7.06308e-05)
(0.343411 0.0625182 4.55591e-05)
(0.307368 0.139657 -9.13297e-05)
(0.385612 0.0265144 5.22914e-05)
(0.377605 0.0460234 0.000120308)
(0.371749 0.0854766 4.40426e-05)
(0.370548 0.155324 -0.000160009)
(0.390782 0.0844032 6.7781e-05)
(0.409785 0.13582 0.000147929)
(0.513569 0.197297 -3.83417e-05)
(0.44775 0.113428 -0.000269581)
(0.504761 0.123778 7.1601e-05)
(0.504669 0.0796826 -1.84501e-06)
(0.339426 0.0320653 -0.00102989)
(0.380446 0.0020407 -0.0003982)
(0.383443 0.000314605 -0.000109029)
(0.387681 0.00920289 -0.000258706)
(0.386124 0.0164079 0.000341454)
(0.366767 0.0206392 2.7896e-05)
(0.357919 0.0235176 -0.000594144)
(0.387139 -0.00473854 -0.000436588)
(0.388404 0.00418486 -0.000213092)
(0.386663 0.0112763 -0.000320404)
(0.381901 0.0208399 0.000381992)
(0.368663 0.0330109 5.38502e-05)
(0.340612 0.0617246 -0.000544105)
(0.301474 0.14049 0.0032636)
(0.389887 -0.00943011 -0.000771181)
(0.392861 -0.00188181 -6.00351e-05)
(0.392169 0.00622508 -4.19382e-05)
(0.390167 0.0150367 5.98745e-05)
(0.385457 0.0263255 5.72754e-05)
(0.376757 0.0455314 6.47232e-05)
(0.369346 0.0864049 -8.30729e-06)
(0.368409 0.159872 -0.000356021)
(0.394373 -0.011804 -7.23255e-06)
(0.396056 -0.00185997 -3.58176e-05)
(0.395746 0.00655601 -2.34508e-05)
(0.394545 0.015973 2.71352e-05)
(0.392064 0.0283412 3.46298e-05)
(0.389083 0.0483005 2.78048e-05)
(0.391393 0.0851686 5.08409e-05)
(0.4083 0.139216 -0.000106608)
(0.513193 0.198563 -0.00136903)
(0.577637 0.0741267 5.41509e-05)
(0.398958 -0.0127798 3.44674e-05)
(0.399525 -0.00191606 -1.66929e-05)
(0.399491 0.00671484 -1.03461e-05)
(0.399145 0.0164205 1.55496e-05)
(0.39878 0.0290501 2.07058e-05)
(0.400352 0.0480956 1.9756e-05)
(0.412564 0.0790094 -4.55831e-05)
(0.44696 0.115535 -0.000159287)
(0.505377 0.124966 -0.000462892)
(0.550546 0.068543 0.000379228)
(0.50528 0.0800628 0.000102647)
(0.536074 0.0482034 -2.48817e-05)
(0.36827 0.0422259 -0.00490734)
(0.349296 0.0471827 -0.00698205)
(0.366631 0.0206757 2.70671e-05)
(0.37154 0.0426841 0.00318023)
(0.364575 0.0276014 -3.16404e-05)
(0.349598 0.0399271 -7.45282e-05)
(0.343676 0.0582768 0.00145843)
(0.289053 0.0929401 0.00159918)
(0.339453 0.0577387 -0.0114887)
(0.29274 0.0950395 0.00302832)
(0.267379 0.123325 0.00711275)
(0.276917 0.136437 0.00346534)
(0.332989 0.15121 0.00479879)
(0.301706 0.140422 -0.00369119)
(0.343272 0.164811 0.000237067)
(0.428586 0.253132 0.000459502)
(0.376769 0.151456 0.000437364)
(0.454967 0.182321 0.00485778)
(0.368734 0.159318 0.000393574)
(0.407828 0.239044 0.00302393)
(0.38632 0.150512 0.00109109)
(0.429619 0.196445 -0.000719157)
(0.53387 0.232649 -0.000767041)
(0.677569 0.0822892 0.043388)
(0.52384 0.244572 -0.00247783)
(0.544966 0.0967265 -0.010258)
(0.587848 0.0713732 0.00275543)
(0.577319 0.0739361 -0.000373635)
(0.549816 0.0688104 -0.000135001)
(0.578489 0.0692994 0.00623567)
(0.343525 0.0155026 0.000873544)
(0.374107 -0.0138143 -0.000694137)
(0.343267 0.0180118 0.00161773)
(0.371478 0.00347389 0.000622285)
(0.378719 0.022783 0.000815838)
(0.385912 -0.0247711 -0.000392609)
(0.380248 0.0045555 0.000450096)
(0.386839 -0.0047138 0.000163615)
(0.380147 0.0126808 0.00118014)
(0.42169 0.0185694 0.000854741)
(0.381537 -0.00128814 0.000195149)
(0.387142 0.00933975 8.11288e-05)
(0.390786 0.0217708 0.00063832)
(0.37973 0.0129219 0.000988937)
(0.389152 0.00955975 4.03827e-05)
(0.381771 0.0144075 0.000794462)
(0.361648 0.0167686 -0.000119563)
(0.377165 0.0329135 -0.00656308)
(0.373728 0.00737118 0.00510991)
(0.385884 0.0162861 -0.000575381)
(0.371926 0.017873 3.67403e-06)
(0.380198 0.019129 -0.000413077)
(0.374888 0.0215345 -6.92468e-05)
(0.35986 0.0211641 0.00323452)
(0.384637 0.00923854 -0.00647259)
(0.366118 0.0204399 0.000586601)
(0.367092 0.0195282 -0.00248738)
(0.360325 0.0199455 -6.17442e-05)
(0.366818 0.0232744 -0.00318391)
(0.35022 0.0188712 -0.000377216)
(0.345597 0.0188856 -0.00990438)
(0.345362 0.0634104 0.00866315)
(0.358607 0.071055 0.00902606)
(0.329282 0.0336859 -0.0173135)
(0.302337 0.0976639 -0.00190449)
(0.350043 0.0728402 -0.00159919)
(0.332603 0.0943404 0.00222791)
(0.340875 0.0613156 0.000612956)
(0.317302 0.0899092 -0.000347875)
(0.350796 0.0709285 -0.0054004)
(0.337474 0.0945368 0.00555738)
(0.300878 0.1915 0.00262702)
(0.300643 0.145263 -0.000891565)
(0.289655 0.148203 0.0023076)
(0.26984 0.195916 -0.00731285)
(0.307627 0.154969 -0.000343443)
(0.325256 0.191971 -0.00521284)
(0.47395 0.28065 -0.00669972)
(0.443624 0.275616 -0.00905078)
(0.61158 0.0788142 -0.0171276)
(0.514925 0.144481 0.000769181)
(0.556613 0.0929429 -0.00214156)
(0.513125 0.198847 0.00165986)
(0.6039 0.088417 -0.0013373)
(0.52198 0.143149 0.000937713)
(0.549419 0.0992012 -0.00162304)
(0.557511 0.0544472 0.00656375)
(0.620861 0.0574616 -0.0139099)
(0.559277 0.0803289 -0.000410748)
(0.574264 0.0749696 -0.00109909)
(0.564015 0.0510577 -0.0113234)
(0.564557 0.0776735 -0.00504955)
(0.544955 0.0608593 -0.00322593)
(0.371299 0.0427044 -0.00314419)
(0.364773 0.0276868 -9.3803e-05)
(0.349467 0.0398705 0.00113771)
(0.367769 0.0186764 0.00184824)
(0.36137 0.0268725 -4.37082e-05)
(0.347952 0.0454479 0.00587305)
(0.339144 0.0578441 0.0114459)
(0.29255 0.0953175 -0.00346434)
(0.343834 0.059585 -0.00150222)
(0.289017 0.0928977 0.000462241)
(0.276793 0.136467 -0.00387849)
(0.266732 0.122973 -0.00628487)
(0.342968 0.165421 -0.000511539)
(0.278748 0.136323 -0.000145963)
(0.332676 0.151387 -0.00552919)
(0.4083 0.239259 -0.00288654)
(0.386126 0.150694 -0.000369359)
(0.42971 0.196297 0.000333055)
(0.367139 0.160762 -0.000165833)
(0.42305 0.250435 0.00415044)
(0.386366 0.152105 -0.00113763)
(0.431865 0.199587 0.000501065)
(0.523634 0.244326 0.00301477)
(0.521803 0.23995 -0.00893485)
(0.667489 0.0722916 -0.0320608)
(0.550288 0.0692588 0.000875565)
(0.578392 0.0696117 -0.0057749)
(0.576493 0.0757066 -4.49909e-06)
(0.545209 0.0682066 4.85089e-05)
(0.581428 0.0714119 -0.00382762)
(0.350916 0.0257483 0.000456154)
(0.440344 0.0264553 0.0302673)
(0.330994 0.0306139 0.000257266)
(0.337011 0.0399123 0.00350133)
(0.34793 0.0220306 -0.0182882)
(0.351122 0.0381633 -0.000591158)
(0.336314 0.0461477 -0.00421153)
(0.312789 0.0477853 0.00335391)
(0.315837 0.0546523 -0.0088068)
(0.303753 0.0602754 0.00147163)
(0.280325 0.100183 -0.00203785)
(0.312322 0.0640472 0.00103951)
(0.298088 0.0978361 0.00297736)
(0.289955 0.0951781 0.0160789)
(0.306017 0.0717304 -0.00137074)
(0.302846 0.0648607 0.00197256)
(0.291252 0.145918 0.00804531)
(0.346909 0.213076 -0.00319189)
(0.330925 0.256803 -0.014171)
(0.340191 0.235256 0.00147469)
(0.361017 0.247855 0.00463296)
(0.325944 0.216344 -0.00161363)
(0.392498 0.226299 -0.00465723)
(0.387234 0.225448 0.00157854)
(0.444425 0.206021 0.014127)
(0.403992 0.240743 0.0014228)
(0.390074 0.242186 -0.000882235)
(0.435856 0.233181 0.00245645)
(0.379887 0.214583 -0.000730059)
(0.461524 0.279651 -0.00427866)
(0.614221 0.165903 -0.0101152)
(0.543888 0.25116 0.00163652)
(0.469625 0.266452 0.00939941)
(0.629173 0.185599 0.00972553)
(0.624417 0.129101 -0.00767478)
(0.62147 0.0998869 -0.0231118)
(0.571298 0.0819567 -0.00395805)
(0.556622 0.0790309 0.000463562)
(0.531244 0.0898393 -0.00874324)
(0.371882 0.000907098 0.0002368)
(0.361792 0.00867939 0.00113448)
(0.367997 -0.0117328 0.000360946)
(0.339447 0.0319908 0.00124614)
(0.372226 -0.000687 0.000606615)
(0.362368 0.012459 0.00163216)
(0.367497 -0.0122553 0.000665073)
(0.386612 -0.00245623 -6.82839e-05)
(0.38365 -0.00259941 0.000220739)
(0.387235 -0.000564049 3.14163e-05)
(0.380483 0.00226064 0.00041839)
(0.386824 -0.00301806 0.000225501)
(0.38359 -0.00253623 0.000404097)
(0.387331 -0.000814145 0.000124808)
(0.381492 0.0198002 0.00202705)
(0.385842 0.00329803 7.42852e-05)
(0.381099 0.00896316 0.000171804)
(0.383372 0.000354628 0.000218231)
(0.386978 0.00861658 0.000117012)
(0.386643 0.00353034 0.000278363)
(0.386977 0.00784554 0.000754154)
(0.379833 0.0125527 -0.00336304)
(0.369359 0.0251762 -0.00367075)
(0.387666 0.0166325 -0.00170533)
(0.387982 0.00918698 -0.000121209)
(0.403634 0.0174665 -0.00104609)
(0.385222 0.0093077 -0.000723995)
(0.382344 0.0153024 -0.000387853)
(0.358045 0.00291157 -0.00197352)
(0.361193 0.0102091 -0.000130356)
(0.349904 0.0317392 0.00225973)
(0.361468 0.0264226 -0.00413672)
(0.360705 0.00947992 0.000402808)
(0.349469 0.032044 -0.000700807)
(0.358657 0.00178012 0.000882039)
(0.345448 0.100551 0.000192231)
(0.652527 0.160597 0.00318544)
(0.44703 0.169728 0.000215855)
(0.412898 0.126455 -0.00100805)
(0.46614 0.147758 0.00264253)
(0.408485 0.139306 0.000320429)
(0.446738 0.173569 -0.00158967)
(0.411867 0.126037 -0.00439839)
(0.465984 0.148899 0.00344747)
(0.557135 0.0595447 -0.000201154)
(0.542679 0.0612767 -0.00266023)
(0.558027 0.0537875 0.00253462)
(0.550218 0.068292 -0.000157806)
(0.567521 0.0562365 0.00110082)
(0.54266 0.0616464 -0.00468265)
(0.5572 0.0501574 0.00532887)
(0.343187 0.0180725 -0.00118101)
(0.371334 0.00330599 -0.000654197)
(0.343462 0.0161316 -0.00115846)
(0.371811 0.00473758 0.000162619)
(0.380189 0.00440049 -0.000439033)
(0.386864 -0.00459927 -0.000169365)
(0.380588 0.00503346 -0.000218388)
(0.386997 -0.00525459 9.74385e-05)
(0.381629 -0.0012568 -0.000101417)
(0.386757 0.0093396 -9.23418e-05)
(0.380803 -0.00209712 -0.000293084)
(0.414403 0.0157054 -0.00670067)
(0.388826 0.00956369 -0.000416717)
(0.396954 0.0158238 0.0278524)
(0.379376 0.0131792 0.00200139)
(0.381894 0.0142734 0.00145202)
(0.372001 0.0179267 4.48933e-07)
(0.380402 0.0192498 0.000805316)
(0.374971 0.0215148 0.000113397)
(0.381601 0.0144373 -0.00069844)
(0.372812 0.0181633 -0.000278498)
(0.375395 0.0182935 0.00071631)
(0.373977 0.0219222 -1.13553e-05)
(0.31702 0.0902572 -0.000132594)
(0.350658 0.0712677 0.00541685)
(0.337232 0.0952246 -0.00598734)
(0.338004 0.0622219 -0.000227255)
(0.30152 0.0978186 0.00384071)
(0.349456 0.0717681 0.00158694)
(0.332641 0.0936585 -0.00138149)
(0.603919 0.0886239 0.000362033)
(0.52171 0.143007 -0.000836247)
(0.549433 0.0997036 -0.000189171)
(0.519275 0.199414 0.00112481)
(0.603697 0.073341 -0.0100783)
(0.514678 0.143627 -0.000677768)
(0.546212 0.0933871 0.00933701)
(0.361452 0.0318555 -0.0142118)
(0.330374 0.0355878 0.00527222)
(0.371434 0.0156418 0.0179941)
(0.347035 0.0366553 -0.00362869)
(0.333158 0.036725 0.00187489)
(0.342988 0.0584138 -0.000854212)
(0.334511 0.0505372 -0.0011475)
(0.349712 0.06018 -0.00145103)
(0.346426 0.0627607 0.000141986)
(0.335449 0.048999 0.00142925)
(0.325973 0.0403722 -0.000216109)
(0.253008 0.120834 -0.00973609)
(0.276588 0.120927 0.00478217)
(0.26143 0.143654 -0.0127959)
(0.260618 0.135624 0.0167812)
(0.236725 0.125143 -0.0168716)
(0.278226 0.129312 0.010777)
(0.265434 0.134694 -0.00333349)
(0.339212 0.182198 0.000597582)
(0.325671 0.152486 0.00134182)
(0.334413 0.177028 -0.00710399)
(0.321133 0.16666 0.00778424)
(0.311384 0.161046 0.00095508)
(0.330895 0.158634 -0.00941123)
(0.329814 0.175742 0.00153769)
(0.3973 0.267592 -0.00311468)
(0.405389 0.281083 -0.0104994)
(0.403435 0.26047 -0.00483619)
(0.410415 0.262752 0.00276042)
(0.428914 0.247845 0.00393498)
(0.424846 0.254077 -0.0038076)
(0.420508 0.254188 0.00215058)
(0.409562 0.271615 0.00723505)
(0.408136 0.24855 -0.000605949)
(0.400069 0.211911 -0.00241483)
(0.43033 0.205068 -0.00271992)
(0.397085 0.19672 -0.00237162)
(0.451224 0.180077 -0.00383916)
(0.440631 0.209391 0.00203216)
(0.397211 0.19877 0.00156434)
(0.400246 0.208677 0.000571531)
(0.637066 0.0903016 0.00829587)
(0.759181 0.0733862 0.0871342)
(0.688122 0.104429 0.0106376)
(0.971718 0.182809 0.0408591)
(0.611309 0.120861 0.0162272)
(0.56409 0.0683363 0.00109415)
(0.570266 0.0594056 -0.00640423)
(0.587874 0.0702499 0.0096016)
(0.570353 0.0623082 -0.00754449)
(0.564533 0.0594185 -0.00293924)
(0.337438 -0.000544755 0.000530833)
(0.343747 0.0164961 0.00211338)
(0.342154 -0.00226952 0.00224927)
(0.342676 0.0128743 0.00236854)
(0.371694 0.00445475 5.51534e-05)
(0.360462 0.0026728 -0.00105586)
(0.388526 -0.0152312 -0.000682392)
(0.38046 0.00497509 0.000395689)
(0.387065 0.00442208 6.4457e-05)
(0.39052 0.0200044 0.000570908)
(0.386881 -0.00513435 8.00009e-06)
(0.390328 -0.000280208 0.000273463)
(0.380235 -0.0110339 -0.000972848)
(0.38078 -0.00187074 0.000292906)
(0.38011 0.00659159 0.000234715)
(0.380357 0.0274607 -0.00269167)
(0.383847 0.00548564 -0.0136364)
(0.385166 0.0098271 0.00027309)
(0.387259 0.00506625 -0.000736561)
(0.38575 0.0106348 -0.00286502)
(0.393859 0.010006 0.00176895)
(0.385369 0.0148307 0.0020241)
(0.401837 0.0108109 -0.00597168)
(0.433785 0.0195262 0.0387949)
(0.373916 0.0171863 -0.00110359)
(0.372801 0.0174629 0.000246019)
(0.372513 0.0176531 0.00220964)
(0.375758 0.0214102 -0.000964476)
(0.398813 0.0296148 0.00267517)
(0.375586 0.0184399 0.00253297)
(0.374486 0.0263427 0.000303545)
(0.357178 0.0346838 0.00119242)
(0.362597 0.0243318 0.00097549)
(0.361273 0.00916103 -0.00408682)
(0.350359 -0.00265518 -0.00133138)
(0.35955 0.0268264 -0.00340137)
(0.351664 0.000559746 0.000132781)
(0.35742 0.0331643 -0.00294172)
(0.385973 0.0369056 -0.00294225)
(0.353306 0.0890127 0.00684701)
(0.337711 0.104655 0.0188112)
(0.36033 0.0496669 -0.0144389)
(0.336458 0.126808 0.0278156)
(0.359253 0.0312005 -0.0278672)
(0.395515 0.0396893 -0.00521777)
(0.350798 0.0131767 0.00455259)
(0.342491 0.0398661 0.000281405)
(0.328038 0.0359763 -0.0253968)
(0.341165 0.0347261 -0.00215513)
(0.313279 0.0434075 -0.111878)
(0.34142 0.0401791 0.00857127)
(0.357125 0.0204962 0.00151001)
(0.284084 0.194001 -0.00320335)
(0.261874 0.195346 -0.00219394)
(0.292849 0.204438 -0.00566598)
(0.248667 0.191973 -0.0147347)
(0.289872 0.206214 -0.000775315)
(0.284745 0.194585 -0.000102257)
(0.293212 0.188485 -0.00161744)
(0.319834 0.181154 0.00546757)
(0.304969 0.200575 -0.00324096)
(0.284984 0.190131 -0.000770359)
(0.30425 0.203917 -0.0233934)
(0.286694 0.182585 0.00664606)
(0.294874 0.191512 0.000454589)
(0.452799 0.278295 -0.00853118)
(0.474252 0.280017 -0.0159449)
(0.464669 0.306122 -0.0115395)
(0.452156 0.277777 -0.0178308)
(0.475924 0.306193 -0.00445264)
(0.57374 0.134904 -0.00339404)
(0.564957 0.085558 -0.00150283)
(0.594896 0.0892667 0.00436128)
(0.596318 0.114284 0.000311331)
(0.564144 0.0927181 -0.00101317)
(0.566832 0.1178 -0.00478739)
(0.570616 0.106875 -0.000721631)
(0.557552 0.0928005 0.00221736)
(0.600337 0.0878441 -0.00180419)
(0.597992 0.0373792 -0.147066)
(0.581068 0.0519446 -0.0332672)
(0.580225 0.0908925 -0.0108495)
(0.603558 0.0608765 -0.0156558)
(0.563292 0.0882015 -0.0124673)
(0.367095 0.0184674 0.000734722)
(0.367426 0.0209205 0.00473923)
(0.359232 0.0213944 -0.00422453)
(0.361126 0.0230462 -0.00612354)
(0.367148 0.0196747 0.00014139)
(0.361137 0.020599 0.00169197)
(0.367442 0.0212892 0.00604367)
(0.437098 0.0194181 0.0634579)
(0.332408 0.0285314 -0.00267812)
(0.350777 0.0308864 -0.0038619)
(0.350262 0.030243 0.00186381)
(0.319475 0.0408703 -0.00852047)
(0.34557 0.0236146 0.0149998)
(0.353201 0.0398985 -0.00138939)
(0.324498 0.0671287 -0.00655467)
(0.375097 0.0225398 -0.00178192)
(0.347178 0.0310995 0.00552222)
(0.360803 0.0705325 -0.0131722)
(0.33857 0.0741012 0.0147538)
(0.309253 0.0443413 0.00720568)
(0.278611 0.100549 0.0111634)
(0.309076 0.0662106 0.0012092)
(0.295721 0.0571555 -0.00183401)
(0.306751 0.0556257 -0.00342101)
(0.29609 0.100352 -0.00236631)
(0.29419 0.100478 -0.0156908)
(0.303581 0.0689811 0.00209458)
(0.289902 0.145422 -0.00818167)
(0.311343 0.147059 0.00162925)
(0.310116 0.189461 -0.000382217)
(0.297813 0.195028 -0.00322595)
(0.288326 0.147806 -0.00249608)
(0.266053 0.192002 0.00677926)
(0.307731 0.15512 0.00175267)
(0.341145 0.198702 -0.00382563)
(0.351481 0.238268 -0.00196265)
(0.325327 0.206639 0.00266576)
(0.328162 0.249635 0.0134106)
(0.356775 0.246489 -0.00668514)
(0.380009 0.231042 -0.00193989)
(0.419979 0.225946 0.00593354)
(0.385124 0.21127 0.00212059)
(0.388798 0.217286 0.00304444)
(0.40571 0.239447 -0.00806278)
(0.390532 0.237775 -0.00233949)
(0.437642 0.233464 0.00408153)
(0.445103 0.267439 0.0102842)
(0.437252 0.274164 0.00830892)
(0.47201 0.268069 -0.0136811)
(0.610388 0.16498 0.00871619)
(0.527256 0.249451 -0.00441685)
(0.461526 0.269931 -0.0162801)
(0.61947 0.182526 -0.00337633)
(0.629874 0.126538 0.0236085)
(0.59313 0.095112 0.00564498)
(0.615238 0.07002 0.000115096)
(0.56561 0.0744001 0.00533251)
(0.560812 0.0553958 -0.00841905)
(0.55744 0.0614015 -0.00797643)
(0.578945 0.0747075 0.00151319)
(0.583206 0.0626189 0.00486744)
(0.567075 0.0745836 0.00973334)
(0.551041 0.0680404 0.000584683)
(0.569623 0.0894914 3.71708e-05)
(0.568062 0.0793121 -0.00977547)
(0.385673 0.0420755 -0.00171617)
(0.377449 0.0256855 -0.0485251)
(0.370017 0.0457231 -0.00351302)
(0.382242 0.0389832 -0.0306986)
(0.373702 0.0328663 -0.0093399)
(0.321158 0.086436 0.0111621)
(0.523557 0.12443 0.0192575)
(0.33941 0.0608707 -0.00309647)
(0.301919 0.0516835 0.0130322)
(0.330154 0.0337966 0.0329519)
(0.281335 0.104404 0.0157228)
(0.276959 0.105014 -0.00470241)
(0.267152 0.094704 -0.0120986)
(0.282103 0.0861418 0.000421293)
(0.270207 0.111909 0.0164034)
(0.277845 0.077949 -0.000252886)
(0.28833 0.0871378 5.62778e-05)
(0.273151 0.118591 -0.0012693)
(0.302195 0.124544 -0.00618479)
(0.354807 0.20775 -0.000707986)
(0.30091 0.278824 -0.00695398)
(0.341313 0.210792 -0.0017945)
(0.322725 0.220552 -0.00148608)
(0.322342 0.222016 -0.0179942)
(0.300011 0.270273 -0.00590781)
(0.544079 0.251065 0.025125)
(0.461563 0.271964 -0.00687598)
(0.455991 0.271192 -0.00260776)
(0.483323 0.294973 -0.00758812)
(0.489417 0.299729 -0.0392642)
(0.458212 0.258018 -0.00558328)
(0.531233 0.273949 -0.0117657)
(0.609484 0.269647 0.000595566)
(0.584063 0.255938 0.00143421)
(0.625015 0.106602 0.00191325)
(0.660155 0.1425 -0.0346159)
(0.671683 0.114691 -0.0282889)
(0.664683 0.10008 0.0584178)
(0.671455 0.122152 -0.123928)
(0.644701 0.0407172 0.0569836)
(0.578385 0.0871305 -0.0175669)
(0.629135 0.0878788 -0.0221026)
(0.574174 0.070273 0.016395)
(0.386281 0.00292937 6.53948e-05)
(0.380632 0.00236837 0.000500423)
(0.386313 0.00227983 1.77613e-05)
(0.38603 0.000322272 0.00653387)
(0.381283 0.000244478 -0.000344337)
(0.38127 3.08075e-05 -0.00586785)
(0.386138 0.000104656 0.000707976)
(0.381483 0.00632141 -0.000201017)
(0.382809 -0.000341163 0.000353419)
(0.382014 0.00557625 0.000113863)
(0.383392 0.0049408 0.00694965)
(0.384094 0.0011003 -0.000855894)
(0.384306 0.00083932 -0.00618167)
(0.38314 0.00481216 0.00108535)
(0.387081 -0.000564661 -0.00214098)
(0.3861 0.0110607 0.00084002)
(0.383946 0.00892019 0.000931197)
(0.381803 0.00819829 0.00417643)
(0.386807 0.0157431 0.00239161)
(0.386151 0.0144369 -0.00391929)
(0.383857 0.00554616 -2.23667e-05)
(0.377983 0.0157519 6.91558e-05)
(0.41229 0.0137704 -0.0133921)
(0.379619 0.0181821 -0.00118058)
(0.383464 0.0159581 -0.00268795)
(0.377727 0.015906 0.00285051)
(0.381333 0.0192332 -0.00355048)
(0.375506 0.0106048 -0.000687289)
(0.372101 -0.000841321 -0.000666093)
(0.362293 0.0133042 -0.00140895)
(0.367302 -0.0127307 -0.000754314)
(0.339678 0.0289719 -0.000663136)
(0.372623 0.000588485 0.000157377)
(0.362103 0.00989001 -0.00179721)
(0.367859 -0.0120929 -0.00035853)
(0.386859 -0.00288884 -0.000229858)
(0.383636 -0.00262168 -0.00040891)
(0.387393 -0.000877109 -0.000131268)
(0.380794 0.00207471 -0.000318085)
(0.386868 -0.00275667 0.000132742)
(0.383789 -0.00267379 -0.000235739)
(0.387386 -0.00063079 -2.60417e-05)
(0.38662 0.00863242 -0.000110363)
(0.38669 0.00354373 -0.000164346)
(0.386666 0.00781739 -0.000190156)
(0.382902 -0.000656128 -0.000348681)
(0.385091 0.0125712 -0.00358406)
(0.386429 0.00322442 -0.000214214)
(0.38612 0.00817305 -0.000669369)
(0.403827 0.0175671 0.000592415)
(0.385013 0.0094844 -0.000600283)
(0.382586 0.0155953 7.06743e-05)
(0.387721 0.0128995 0.00100414)
(0.378931 0.0127756 0.00597425)
(0.381805 0.0106572 0.000868429)
(0.376128 0.0166326 0.00621933)
(0.368839 0.0144452 -0.00316105)
(0.374516 -0.00124029 -0.00115595)
(0.368813 0.0212931 0.00125249)
(0.374118 -0.0131623 -0.000275493)
(0.368751 0.0208948 0.00065075)
(0.374726 -0.00280624 0.00285689)
(0.368483 0.0130654 0.00182506)
(0.383219 -0.00370493 0.00325325)
(0.379124 0.0140609 0.00154708)
(0.382588 -0.014239 -0.000800078)
(0.378703 0.0222514 0.000907158)
(0.382553 -0.0135624 -0.000214383)
(0.37925 0.0155097 -0.0029229)
(0.383084 -0.00215758 -0.00140873)
(0.391298 0.00591781 -0.00324561)
(0.38673 -0.0168985 -0.00150347)
(0.389692 0.0157553 0.000616363)
(0.385858 -0.0241826 -0.000915137)
(0.389618 0.0150743 0.000660579)
(0.386771 -0.0181405 0.00337758)
(0.39126 0.0044039 0.00155796)
(0.376285 -0.00597691 0.00269767)
(0.378824 -0.000968635 0.0011344)
(0.37818 -0.0162379 -0.00140885)
(0.380242 0.0121665 -4.04576e-05)
(0.378225 -0.0156059 0.000179962)
(0.37919 0.000897437 -0.00242703)
(0.376001 -0.00437534 -0.0014933)
(0.399904 0.0127378 -0.0476103)
(0.416178 0.0272721 -0.00965662)
(0.443484 0.00223203 0.037449)
(0.416189 0.0305954 -0.061077)
(0.464626 0.0118373 0.0320249)
(0.388478 0.00754288 -8.92778e-05)
(0.399354 0.01714 -0.0166539)
(0.389726 0.0170021 0.00821579)
(0.37698 0.0122992 0.00278276)
(0.382744 0.00733912 -0.000480726)
(0.418086 0.0137913 0.00974928)
(0.38463 0.0128749 -0.000193372)