/*--------------------------------*- C++ -*----------------------------------*\
  =========                 |
  \\      /  F ield         | OpenFOAM: The Open Source CFD Toolbox
   \\    /   O peration     | Website:  https://openfoam.org
    \\  /    A nd           | Version:  10
     \\/     M anipulation  |
\*---------------------------------------------------------------------------*/
FoamFile
{
    format      ascii;
    class       surfaceScalarField;
    location    "0";
    object      phi;
}
// * * * * * * * * * * * * * * * * * * * * * * * * * * * * * * * * * * * * * //

dimensions      [0 3 -1 0 0 0 0];

internalField   nonuniform List<scalar> 
25081
(
-0.408341
2.11324
4.53214
0.00085323
-0.689486
-0.40835
-0.689492
-0.000303742
-1.80181
0.192509
-1.38706
2.99643
0.000239768
-26.2854
22.7702
-0.00136064
-86.0624
173.727
0.000904903
-28.9317
-26.2852
-28.9316
2.92105
42.8395
0.00254516
-7.1356
-9.66731
-7.13556
-9.6673
-5.37525
-5.44318
3.2816
2.92098
3.28157
-22.3749
0.0151968
25.281
0.000845226
297.277
0.00213245
-279.377
3.65774
-279.377
3.65974
-3.13888
-8.56943
-3.13871
-8.56897
25.1907
45.0699
0.00240733
47.8435
101.277
0.00208232
-25.7736
-36.1907
-25.7733
-36.1906
162.991
0.00142005
34.7051
42.2532
0.00226645
57.858
78.1262
0.00197761
91.9727
0.000915196
40.7279
0.00211889
60.1342
0.0018163
0.00134123
-1.67158
1.74835
-0.00723999
9.63489e-05
-0.0695163
-0.000134823
-0.0710108
-1.48235
1.51144
0.0419399
0.000116193
-0.000631199
-0.408337
-1.10145
2.11327
4.53203
0.000448938
-0.689467
-0.408338
-0.689473
-1.1233
-1.10146
-1.12329
-0.000164208
-1.80178
0.192512
-1.38706
2.99637
0.000118377
-26.2856
22.77
-0.000708013
-86.0631
173.729
0.000431239
-28.9322
-26.2855
-28.9319
7.69106
-2.42822
0.000312267
0.296627
-7.82257
7.56594
-0.0398549
0.000370072
-1.38746
-7.0668
-0.000579237
6.19311
2.26131
0.000419173
2.92089
42.8388
0.00113066
-7.13544
-9.66716
-7.13543
-9.66715
-5.3752
-5.44319
-5.37519
-5.44313
3.2814
2.92085
3.28139
-22.3745
-0.00062118
0.0149849
25.2806
0.000421122
297.28
0.000577323
-279.379
3.66122
-279.38
3.66182
-3.13823
-8.56846
-3.13815
-8.5683
33.1888
-4.96805
0.000828838
2.04088
1.27612
2.04104
1.27599
30.8008
4.78247
0.000973767
-0.368233
-0.82848
-0.368082
-0.828596
27.4179
18.5654
0.00107306
-3.26603
-4.32465
-3.26602
-4.3245
25.1886
45.0694
0.00107226
47.8392
101.278
0.000898313
-25.7731
-36.1909
-25.773
-36.1908
162.995
0.000994595
34.7887
-3.40143
0.000792593
33.1253
6.44699
0.000932818
31.885
19.8068
0.00101673
34.7029
42.2527
0.00101814
57.855
78.1274
0.000862695
91.9743
0.000726849
36.368
0.000760618
35.3788
0.000887972
35.6936
0.000964651
40.726
0.000955786
60.1315
0.000788126
0.000692492
-2.31086e-05
1.34977
-1.41446
1.58908e-05
0.0646877
-5.27059e-05
-1.67159
1.74836
-0.00724318
3.91885e-05
-0.0695158
-6.26566e-05
-0.0710075
-1.48236
1.51145
0.0419344
4.6846e-05
-0.000282403
-0.408333
-1.10145
2.11327
4.532
0.000136957
-0.689464
-0.408328
-0.689468
-1.1233
-1.10147
-1.1233
-7.14548e-05
-1.80177
0.192518
-1.38706
2.99635
3.60167e-05
-26.2858
22.77
-0.000238841
-86.0633
173.729
0.000111362
-28.9322
-26.2856
-28.932
2.6883
-0.000203025
7.69108
-2.42824
9.76221e-05
0.296645
-0.000238483
-7.82258
7.56596
-0.0398986
0.000115535
-1.38741
-7.06678
-0.000268637
6.19309
2.26124
0.000130049
2.9208
42.8383
-1.29546e-05
-7.13537
-9.66709
-7.13537
-9.6671
-5.37516
-5.44307
-5.37516
-5.44308
3.28136
2.9208
3.2813
-22.3743
-0.000269518
0.0148798
25.2804
0.000127668
297.278
-2.72613e-06
-279.38
3.6626
-279.38
3.66285
-3.13803
-8.56828
-3.13801
-8.56829
33.1885
-4.96797
-2.79383e-05
2.04107
1.27587
2.04108
1.27587
30.7999
4.78246
-2.39184e-05
-0.367909
-0.828564
-0.3679
-0.828561
27.4172
18.565
-1.81691e-05
-3.26596
-4.32465
-3.26596
-4.32461
25.1875
45.069
-1.27483e-05
47.8367
101.279
-6.81694e-06
-25.773
-36.1906
-25.7729
-36.1906
162.996
-2.34592e-06
34.7885
-3.40139
-2.72495e-05
33.125
6.44697
-2.43752e-05
31.8845
19.8065
-1.64352e-05
34.7018
42.2528
-1.25566e-05
57.8536
78.1279
-6.62313e-06
91.9765
-1.93462e-06
36.3675
-2.68531e-05
35.3785
-2.34527e-05
35.6928
-1.59162e-05
40.7252
-1.2035e-05
60.1297
-6.17817e-06
-1.44395e-06
6.26981e-07
1.34977
-1.41446
-7.4991e-06
0.0646881
1.36152e-06
-1.67159
1.74837
-0.00724369
-1.44885e-05
-0.0695158
1.19554e-06
-0.0710067
-1.48236
1.51145
0.0419329
-1.62952e-05
3.91903e-06
-0.408334
-1.10145
2.11327
4.532
-0.000143322
-0.689467
-0.408326
-0.68947
-1.1233
-1.10147
-1.1233
2.74835e-08
-1.80176
0.192521
-1.38707
2.99634
-3.10751e-05
-26.2858
22.77
3.07266e-06
-86.0634
173.729
-0.000110402
-28.9323
-26.2856
-28.932
2.68831
7.13243e-06
7.69108
-2.42825
-0.000112448
0.296637
6.31498e-06
-7.82258
7.56597
-0.0399043
-0.000128344
-1.38742
-7.06678
4.95545e-06
6.19309
2.26123
-0.000140291
2.9208
42.8383
-0.00115793
-7.13537
-9.6671
-7.13537
-9.66709
-5.37516
-5.44308
-5.37516
-5.44307
3.2813
2.9208
3.28136
-22.3743
1.91682e-06
0.0148619
25.2804
-0.000132494
297.278
-0.000584534
-279.38
3.66285
-279.38
3.6626
-3.13801
-8.56829
-3.13804
-8.56827
33.1885
-4.96797
-0.000887707
2.04108
1.27587
2.04107
1.27587
30.7999
4.78246
-0.00102258
-0.367901
-0.828561
-0.367909
-0.828565
27.4172
18.565
-0.00111016
-3.26596
-4.32461
-3.26596
-4.32466
25.1875
45.069
-0.00109808
47.8367
101.279
-0.000913214
-25.7729
-36.1906
-25.773
-36.1906
162.996
-0.000999967
34.7885
-3.40139
-0.000849701
33.1253
6.44669
-0.000980321
31.8845
19.8068
-0.00105253
34.7018
42.2528
-0.00104266
57.8536
78.1279
-0.000876082
91.9765
-0.000730554
36.3675
-0.000816553
35.3783
-0.000934099
35.6928
-0.000999249
40.7252
-0.000979052
60.1297
-0.000799852
-0.000694263
2.46272e-05
1.34977
-1.41446
-3.13651e-05
0.0646877
5.55554e-05
-1.67159
1.74836
-0.00724203
-6.96403e-05
-0.0695164
6.50875e-05
-0.0710084
-1.48236
1.51145
0.0419357
-8.15791e-05
0.000290546
-0.408341
-1.10146
2.11327
4.53203
-0.000457893
-0.689468
-0.40833
-0.689471
-1.1233
-1.10146
-1.1233
7.10439e-05
-1.80176
0.192517
-1.38706
2.99634
-0.000104551
-26.2858
22.77
0.000246137
-86.0633
173.729
-0.000432483
-28.9322
-26.2855
-28.932
2.68829
0.000218785
7.69108
-2.42822
-0.000328551
0.296641
0.000251551
-7.82258
7.56594
-0.0398714
-0.000383463
-1.38744
-7.06679
0.000278735
6.19309
2.26129
-0.000429731
2.92085
42.8388
-0.00257062
-7.13543
-9.66715
-7.13544
-9.66717
-5.37519
-5.44313
-5.37521
-5.4432
3.28139
2.9209
3.28141
-22.3744
0.000273082
0.0149273
25.2804
-0.000428296
297.28
-0.00214425
-279.38
3.66182
-279.379
3.66122
-3.13816
-8.56829
-3.13823
-8.56846
33.1888
-4.96804
-0.00179982
2.04104
1.27599
2.04088
1.27612
30.8008
4.78248
-0.0021124
-0.368084
-0.828597
-0.368235
-0.828483
27.4179
18.5654
-0.00235808
-3.26603
-4.3245
-3.26603
-4.32466
25.1886
45.0694
-0.00243219
47.8392
101.278
-0.00209761
-25.773
-36.1907
-25.7731
-36.1909
162.995
-0.00142649
34.7888
-3.40142
-0.00171858
33.1256
6.44672
-0.00201842
31.885
19.8071
-0.00223379
34.7029
42.2527
-0.00229005
57.855
78.1274
-0.0019906
91.9743
-0.000918205
36.368
-0.00165134
35.3786
-0.00191749
35.6936
-0.0021088
40.726
-0.00214121
60.1315
-0.00182671
-0.0013402
4.97339e-05
1.34976
-1.41444
-5.63119e-05
0.0646874
0.000114104
-1.67158
1.74835
-0.00723816
-0.0001297
-0.0695173
0.000137341
-0.0710128
-1.48235
1.51144
0.0419429
-0.000157189
0.000636844
-0.408354
-1.10145
2.11327
4.5321
-0.000860095
-0.689481
-0.408338
-0.68948
-1.12329
-1.10146
-1.1233
0.000164057
-1.80178
0.192513
-1.38706
2.99636
-0.000201551
-26.2855
22.7701
0.000712075
-86.0628
173.727
-0.000901372
-28.932
-26.2853
-28.9318
2.68826
0.000440606
7.69104
-2.42821
-0.000552513
0.296597
0.000518962
-7.82258
7.56594
-0.039817
-0.00066446
-1.38749
-7.06682
0.000589403
6.19311
2.26138
-0.000774002
2.92098
42.8396
-0.00453881
-7.13556
-9.66731
-7.1356
-9.66731
-5.37525
-5.44319
-5.37529
-5.44329
3.28158
2.92106
3.2816
-22.3746
0.000625077
0.0150954
25.2807
-0.000850304
297.277
-0.00402805
-279.377
3.65976
-279.377
3.6576
-3.13871
-8.56897
-3.13888
-8.56943
33.1899
-4.96813
-0.00282224
2.041
1.27592
2.04089
1.27587
30.802
4.78255
-0.0033684
-0.368148
-0.828582
-0.368096
-0.828596
27.4193
18.5662
-0.0039251
-3.26617
-4.32459
-3.2662
-4.32488
25.1907
45.0699
-0.00426785
47.8435
101.277
-0.00395579
-25.7733
-36.1906
-25.7736
-36.1907
162.991
-0.00290016
34.7897
-3.40142
-0.00266711
33.1263
6.44714
-0.00320211
31.8866
19.8074
-0.00369064
34.7051
42.2532
-0.00404004
57.8581
78.1262
-0.00374701
91.9728
-0.00245645
36.3691
-0.00254308
35.3798
-0.00302982
35.6946
-0.00345903
40.7279
-0.00371834
60.1342
-0.00344489
-0.00217646
7.67482e-05
1.34974
-1.41442
-8.40745e-05
0.0646834
0.0001807
-1.67155
1.74832
-0.00723114
-0.00019894
-0.0695192
0.00022603
-0.0710213
-1.48232
1.51141
0.0419582
-0.000250884
0.00111307
-0.408378
-1.10143
2.11321
4.53227
-0.00143687
-0.689498
-0.408358
-0.689493
-1.12328
-1.10143
-1.12328
0.000304091
-1.80181
0.192521
-1.38706
2.99641
-0.000357093
-26.2851
22.7704
0.00136795
-86.0616
173.724
-0.00176963
-28.9315
-26.2847
-28.9313
2.6882
-7.95096
0.000678625
7.69113
-2.42824
-0.000808551
0.29654
0.000822059
-7.82256
7.56593
-0.0397375
-0.000995486
-1.38764
-7.06682
0.000972532
6.19313
2.26155
-0.00119974
2.92116
42.8414
-0.00745668
-7.13585
-9.66761
-7.13596
-9.66761
-5.37532
-5.44333
-5.37538
-5.4436
3.28181
2.92128
3.2819
-22.3752
0.00116107
0.0153809
25.2813
-0.00155013
297.275
-0.00868117
-279.373
3.65474
-279.373
3.65135
-3.13976
-8.57023
-3.14009
-8.57098
33.1917
-4.96833
-0.00385238
2.04079
1.27588
2.04077
1.27593
30.8042
4.78287
-0.00479006
-0.368187
-0.828753
-0.368415
-0.828608
27.4214
18.5674
-0.00591565
-3.26644
-4.32466
-3.2667
-4.32491
25.1944
45.0711
-0.00693888
47.8516
101.276
-0.00724768
-25.7739
-36.1906
-25.7743
-36.1909
162.987
-0.00592785
34.7918
-3.4015
-0.00365033
33.1284
6.44758
-0.00452354
31.8891
19.8086
-0.00552076
34.7066
42.2561
-0.00651099
57.864
78.1215
-0.00677096
91.971
-0.00549629
36.3707
-0.00345636
35.3813
-0.00423875
35.6965
-0.00509812
40.733
-0.00597298
60.1378
-0.00636641
-0.00404428
0.000107554
1.34971
-1.41439
-0.000115185
0.0646797
0.000258091
-1.6715
1.74827
-0.00722148
-0.000278476
-0.0695212
0.000336371
-0.0710336
-1.48227
1.51135
0.0419889
-0.000366749
0.00179977
-0.40843
-1.10136
2.11295
4.53258
-0.00225606
-0.689547
-0.408412
-0.689528
-1.12321
-1.10136
-1.12322
0.00053635
-1.80187
0.192579
-1.38712
2.9965
-0.00061715
-26.2841
22.7712
0.00276111
-86.0598
173.718
-0.00357211
-28.9308
-26.2836
-28.9304
2.68812
-7.95095
0.000951506
7.69116
-2.42819
-0.00109481
0.296435
0.00117891
-7.82261
7.566
-0.0396382
-0.00136764
-1.38789
-7.06678
0.00144994
6.19311
2.26183
-0.00172218
2.92131
42.8448
-0.011609
-7.13642
-9.6682
-7.13675
-9.66821
-5.37537
-5.44348
-5.3755
-5.44391
3.28216
2.92146
3.28226
-22.3762
0.00207179
0.0157524
25.2824
-0.00275685
297.266
-0.0187607
-279.365
3.64656
-279.363
3.64089
-3.1417
-8.57244
-3.14224
-8.57397
33.1956
-4.96929
-0.00495676
2.04079
1.27583
2.0406
1.27626
30.808
4.78374
-0.00622915
-0.36839
-0.828799
-0.368527
-0.82892
27.4256
18.5694
-0.00821899
-3.26716
-4.32474
-3.26751
-4.32534
25.2
45.0742
-0.0106949
47.8648
101.273
-0.0133045
-25.7749
-36.1904
-25.7758
-36.1909
162.973
-0.0120065
34.7951
-3.40217
-0.0046552
33.1311
6.44898
-0.00581653
31.8912
19.8114
-0.00751485
34.7104
42.2582
-0.00972456
57.8743
78.1146
-0.0119869
91.9556
-0.00905277
36.3725
-0.00434329
35.3832
-0.00539889
35.7001
-0.00689776
40.7381
-0.00889782
60.1431
-0.0115333
-0.00772941
0.000141112
1.34967
-1.41434
-0.000147871
0.0646771
0.000339834
-1.67144
1.74819
-0.00720543
-0.000358732
-0.069525
0.00046764
-0.0710635
-1.48218
1.51123
0.0420417
-0.000500124
0.00275292
-0.408535
-1.10121
2.11223
4.53319
-0.00333656
-0.689615
-0.408537
-0.689584
-1.12307
-1.10119
-1.12309
0.000920933
-1.80196
0.192782
-1.38736
2.99665
-0.00104163
-26.2822
22.7733
0.00551865
-86.0565
173.706
-0.00710148
-28.9289
-26.2815
-28.9284
2.68817
-7.95112
0.00124524
7.69138
-2.42827
-0.00140451
0.296311
0.00154591
-7.82299
7.56631
-0.0394432
-0.0017282
-1.38833
-7.06704
0.00202632
6.19322
2.26247
-0.00234356
2.92127
42.8519
-0.0167682
-7.13754
-9.66937
-7.13838
-9.66946
-5.37539
-5.4438
-5.37583
-5.44454
3.28238
2.92145
3.28249
-22.3781
0.0036182
0.0159541
25.2845
-0.00469615
297.234
-0.0390787
-279.347
3.63285
-279.343
3.622
-3.14467
-8.57613
-3.14594
-8.56998
33.203
-4.97113
-0.00599662
2.04063
1.27655
2.04073
1.27695
30.8146
4.78529
-0.00735705
-0.368893
-0.829163
-0.369307
-0.828424
27.4304
18.574
-0.0104288
-3.26825
-4.32522
-3.26864
-4.32547
25.2052
45.0812
-0.0148268
47.8851
101.269
-0.0205219
-25.7789
-36.1882
-25.781
-36.1936
162.936
-0.0202914
34.8002
-3.40276
-0.0054525
33.1355
6.45089
-0.00671967
31.8957
19.8155
-0.00924548
34.7193
42.2609
-0.0131105
57.888
78.1064
-0.0180056
91.9205
-0.0137837
36.3745
-0.00500476
35.3847
-0.00616343
35.7014
-0.0083317
40.7403
-0.0115145
60.1413
-0.0158483
-0.00948384
0.000180512
1.34963
-1.41428
-0.000192627
0.0646601
0.000408322
-1.67137
1.74809
-0.00717515
-0.00041961
-0.0695327
0.000586287
-0.0710976
-1.48205
1.51105
0.0421105
-0.000603976
0.00390557
-0.408745
-1.1009
2.11065
4.53436
-0.00454124
-0.689745
-0.408785
-0.689694
-1.12281
-1.10087
-1.12282
0.00148463
-1.8021
0.193297
-1.38801
2.99699
-0.00165418
-26.2782
22.779
0.0109042
-86.0515
173.681
-0.0141782
-28.9254
-26.277
-28.9247
0.000237044
-0.00026123
2.92718
-0.463398
2.68868
-7.9523
0.00156874
7.69227
-2.42839
-0.00184093
0.296224
0.0018406
-7.8243
7.56752
-0.0393691
-0.00191893
-1.38892
-7.06813
0.0025437
6.19361
2.26361
-0.00270963
2.92106
42.8672
-0.0218716
-7.1399
-9.67179
-7.14193
-9.67232
-5.37587
-5.44432
-5.3771
-5.4454
3.28264
2.92147
3.28134
-22.3821
0.00580111
0.015707
25.289
-0.00726679
297.171
-0.0845968
-279.314
3.6112
-279.306
3.59301
-3.15007
-8.57363
-3.15219
-8.57827
33.2163
-4.97302
-0.00608546
2.04036
1.27731
2.04129
1.27844
30.8248
4.78833
-0.00711532
-0.369747
-0.828682
-0.370197
-0.828451
27.4372
18.583
-0.0115989
-3.26972
-4.32596
-3.27073
-4.32771
25.2149
45.0929
-0.0182477
47.9145
101.268
-0.0293634
-25.7835
-36.1936
-25.7848
-36.1966
162.866
-0.0281355
34.8061
-3.40131
-0.00497012
33.1401
6.45395
-0.00627963
31.901
19.8227
-0.00991889
34.7261
42.2703
-0.0155362
57.8942
78.1047
-0.0230855
91.8569
-0.0141447
36.3756
-0.00454805
35.3844
-0.00572343
35.7001
-0.00866037
40.7406
-0.0129241
60.1343
-0.01728
-0.00601157
0.000254558
1.34969
-1.41428
-0.000289884
0.0646163
0.000427915
-1.6714
1.74805
-0.00709836
-0.000421239
-0.0695605
0.000631192
-0.071154
-1.48192
1.51084
0.0422209
-0.000614581
0.00500657
-0.409111
-1.10042
2.10793
4.5365
-0.00544015
-0.689925
-0.409217
-0.689846
-1.12245
-1.10043
-1.1226
0.00223911
-1.80241
0.194402
-1.38958
2.99779
-0.00244205
-26.2695
22.7948
0.021664
-86.0466
173.629
-0.0271668
-28.918
-26.2673
-28.9167
0.000405866
-0.000541781
2.92707
-0.46343
2.68999
-7.9562
0.00206941
7.69671
-2.42988
-0.00269115
0.296301
0.00186053
-7.8291
7.57204
-0.039439
-0.00165515
-1.39029
-7.07189
0.00277969
6.19699
2.26513
-0.00271798
2.92253
42.8994
-0.0239721
-7.14517
-9.67805
-7.14899
-9.68001
-5.37807
-5.44531
-5.38143
-5.4472
3.28012
2.92346
3.28083
-22.3903
0.00874014
0.0132817
25.3012
-0.0103777
297.004
-0.151316
-279.248
3.58276
-279.245
3.5716
-3.15877
-8.57862
-3.16331
-8.58561
33.2329
-4.96538
0.00109062
2.04072
1.27904
2.04208
1.27953
30.8324
4.79575
-0.00278507
-0.370595
-0.829223
-0.37051
-0.829273
27.4424
18.5975
-0.010216
-3.27288
-4.32965
-3.27445
-4.33191
25.2276
45.1148
-0.0187883
47.9344
101.287
-0.035217
-25.789
-36.2013
-25.7937
-36.2046
162.711
-0.0221789
34.8088
-3.3798
0.00261687
33.1387
6.46178
-0.00228986
31.8999
19.8346
-0.00822286
34.7292
42.2852
-0.0153491
57.8966
78.1214
-0.0243769
91.7388
-0.00342077
36.3717
0.000854945
35.3791
-0.00244789
35.6956
-0.00698953
40.7364
-0.0122239
60.1348
-0.0171118
0.000834287
0.000517624
1.35038
-1.41445
-0.000724036
0.0642709
0.000257928
-1.67183
1.74827
-0.00691961
-0.00014553
-0.0696344
0.000503725
-0.0711787
-1.4823
1.51098
0.042454
-0.000459155
0.00537727
-0.409794
-1.10014
2.10447
4.54176
-0.00528146
-0.69019
-0.40994
-0.690058
-1.12256
-1.10048
-1.12316
0.00286446
-1.80296
0.196407
-1.39295
2.99961
-0.00297931
-26.253
22.8324
0.0377276
-86.0562
173.541
-0.0442562
-28.9053
-26.2493
-28.9033
0.000858746
-2.46817
-0.000889265
2.92621
-0.458
2.69054
-7.97253
0.00319223
7.71249
-2.42776
-0.00593527
0.296613
0.000887358
-7.84276
7.58424
-0.0397439
0.000767566
-1.39203
-7.08217
0.00224951
6.20514
2.26858
-0.00178085
2.92333
42.9527
-0.0175595
-7.15734
-9.68968
-7.16259
-9.69375
-5.3849
-5.44763
-5.38885
-5.44809
3.28226
2.92477
3.28336
-22.4077
0.0110911
0.0128787
25.3186
-0.0115569
296.605
-0.158461
-279.172
3.58246
-279.087
3.60224
-3.1683
-8.60155
-3.17315
-8.60613
33.2306
-4.91082
2.03272
1.28088
2.01987
1.26039
30.8139
4.81148
0.00961477
-0.371003
-0.83158
-0.372457
-0.832119
27.4262
18.6195
-0.00507831
-3.27822
-4.33795
-3.27889
-4.34194
25.2256
45.1475
-0.0129506
47.9246
101.328
-0.0293682
-25.8039
-36.2069
-25.8071
-36.2146
162.416
-0.000738551
34.799
-3.20816
33.1234
6.47777
0.0070258
31.8883
19.85
-0.00362765
34.7253
42.3055
-0.0103734
57.9044
78.1432
-0.0189903
91.5436
0.00766351
36.3628
35.3658
0.00377796
35.6849
-0.00311047
40.7283
-0.00792912
60.1292
-0.0127339
0.00560141
0.000901647
-1.42032
-0.000473858
1.35438
0.0655066
-0.000353707
-1.67335
1.74957
-0.00615421
0.000329989
-0.0700456
0.000150984
-0.0707692
-1.48594
1.51491
0.0417668
-0.000121342
0.00393696
-0.411237
-1.1033
2.10671
4.55657
-0.00266423
-0.690821
-0.411265
-0.690708
-1.12523
-1.10537
-1.12663
0.00240342
-1.80412
0.199008
-1.39954
3.00448
-0.00223074
-26.2311
22.8888
0.0416001
-86.084
173.426
-0.030085
-28.8936
-26.2273
-28.8906
0.00645038
-3.05412
-0.0102618
2.95825
0.0996748
-8.06536
2.68096
0.00212147
7.75187
0.290796
-0.00309853
-7.85898
7.59769
-0.0281727
0.00176604
-1.39417
-7.09283
0.000759794
6.2121
2.27473
-0.000595467
2.92638
43.0095
-7.17541
-9.7098
-7.17947
-9.71159
-5.39141
-5.44725
-5.39092
-5.44498
3.28494
2.92696
3.28548
-22.4375
0.0091239
0.0192395
25.3414
-0.00585405
296.043
-279.045
3.66518
-278.972
3.7169
-3.18283
-8.61232
-3.18141
-8.62063
30.757
4.81133
-0.381961
-0.837834
-0.3818
-0.837301
27.3875
18.6393
-3.28347
-4.35294
-3.28301
-4.35549
25.2075
45.1765
47.8868
101.37
-25.8169
-36.2235
-25.8163
-36.2222
162.075
33.0966
6.47462
31.8705
19.8618
34.7125
42.3241
57.8975
78.1661
91.3443
35.3475
35.6728
40.7202
60.1189
1.26625
0.0437471
-2.20142
-2.2191
-2.18915
-2.22218
1.75816
1.26838
1.80826
0.00819211
1.7895
-1.72777
-0.00334365
1.19966
-0.483639
1.28348
0.000281492
-0.000329665
-0.779194
-0.0206003
1.80181
0.000362228
-0.000426887
-0.433884
-1.85151
-7.17905
9.46573
0.000305537
-0.00040798
-7.35069
5.06412
-11.8366
4.50833
47.7892
-0.000471801
0.000324014
26.2851
-0.000436077
-18.3595
-15.1046
3.04029e-05
-11.8374
-0.000614013
4.5087
47.7896
-0.192522
0.00113634
-1.28346
-1.01928
-1.01928
-0.192522
-0.129382
-0.129401
-0.000355484
-1.38707
2.99641
47.5184
0.00125292
-22.7704
-9.46569
-7.54542
-7.54542
2.18268
2.45467
2.45472
2.18265
-3.84233
0.00119567
-5.06401
-4.0687
-4.06875
-5.06395
0.0011976
-1.41828
0.0710117
0.000102764
-0.00011864
1.33259
-0.153236
1.38008
0.0444335
0.000159405
-0.000190495
-1.24339
-0.181088
0.241263
0.730458
0.00027249
-0.483625
1.28345
-0.779186
-0.0205991
0.000239447
0.408354
0.000184636
-0.000213775
0.241269
0.730484
-0.48363
1.28345
0.000154515
-0.000185869
-0.77918
-0.0206094
-0.433877
-1.8515
0.000303945
-7.17901
9.46572
-7.35074
5.06414
0.000218327
1.80178
0.000195807
-0.000236611
-0.433869
-1.8515
-7.17905
9.4657
0.000155534
-0.000232006
-7.35069
5.06413
-18.3596
-15.1046
0.000191984
-11.8376
4.50879
47.7897
-0.000538526
0.000166422
26.2855
-0.000255819
-18.3598
-15.1047
1.66292e-05
-11.838
-0.000591358
4.50897
47.7898
-0.00015463
1.51144
0.041942
1.10145
0.00016182
-0.000185481
-1.31673
0.259743
6.02276
0.000583884
-0.196662
-0.116677
-0.116664
-0.196653
1.3875
5.17463
0.000630961
-0.409916
-0.454296
-0.454368
-0.409921
2.57684
7.36272
0.000861693
-1.01926
-1.28345
-1.01925
-0.129388
-0.192517
-0.129378
2.57138
0.000871112
0.000881413
0.267046
2.11327
4.5321
-0.408339
-0.68948
-0.689479
-1.10145
-1.12329
-1.1233
7.36268
-0.192514
0.000628274
-1.28344
-1.01925
-1.01924
-0.192514
-0.12938
-0.129389
2.57139
0.000636742
0.267016
0.000634227
47.518
0.000894456
-7.54536
-9.46568
-7.54539
2.18268
2.45467
2.18263
2.4547
-3.84233
0.000878066
-5.06386
-4.06874
-5.06399
-4.06861
0.000861239
-1.41793
45.0939
-0.000200452
-1.38706
2.99637
47.5178
0.000651989
-22.7701
-9.46566
-7.54539
-7.54539
2.18266
2.45466
2.45471
2.18263
-3.84234
0.000640588
-5.06389
-4.06864
-4.06864
-5.06388
22.3746
0.000626112
-1.41789
45.0936
1.25035
-1.18922
5.01095e-05
-0.0611209
1.25036
-1.18923
2.746e-05
-3.53628e-05
-0.0611198
1.33259
8.79196e-05
-0.153236
1.38005
0.0444441
-1.2434
0.000138196
-0.181082
0.071008
4.77374e-05
-6.09693e-05
1.3326
-0.153236
1.38008
0.0444296
7.2508e-05
-9.59555e-05
-1.2434
-0.181085
0.241269
0.73048
0.000151413
-0.483625
1.28344
-0.779178
-0.0206064
0.000124895
0.408341
8.29492e-05
-0.000107408
0.241276
0.730487
-0.483632
1.28344
6.77375e-05
-9.17755e-05
-0.779173
-0.0206068
-0.433861
-1.8515
0.000154743
-7.17904
9.46572
-7.35074
5.06415
8.99434e-05
1.80177
8.54643e-05
-0.000116189
-0.433854
-1.85152
-7.17905
9.4657
5.71431e-05
-0.00012828
-7.35071
5.06414
-18.3599
-15.1047
6.51649e-05
-11.8381
4.509
47.7899
-0.00053782
5.62819e-05
26.2857
-0.000150788
-18.3599
-15.1048
5.44354e-06
-11.8383
-0.00056665
4.50908
47.7899
1.77121
4.89627e-05
-5.72808e-05
1.17189
-1.61565
-0.0495277
8.79175e-05
-0.00638569
0.000331912
7.64675
0.208016
0.118837
0.208013
0.118824
-1.06456
-2.95569e-05
1.34977
-1.41446
0.0646879
1.6716
4.84661e-05
-6.17898e-05
-1.61566
-0.0495425
-0.00638517
7.23577
0.000196661
-1.77114
-1.75331
-1.75332
0.421402
0.829388
0.829408
0.421404
-2.68829
7.64677
0.000216103
0.208011
0.118836
0.118835
0.208009
-1.06457
-2.36582
-0.305742
0.000139749
7.5541
0.000374755
0.142425
0.0522713
0.14243
0.052281
0.000403201
6.78344
0.206969
0.152012
0.206954
0.151994
0.0528835
-6.65307e-05
1.74836
-0.00723327
-0.0695162
1.48236
7.42594e-05
-9.13474e-05
-2.36583
-0.305747
7.55412
0.000242327
0.142421
0.0522897
0.0522888
0.142425
-0.296643
6.78345
0.000260069
0.20697
0.152008
0.151999
0.206961
0.0528763
-1.31674
0.259763
0.00013301
6.02277
0.000421013
-0.19666
-0.116671
-0.196645
-0.116649
0.000448621
5.17461
-0.409905
-0.454341
-0.409914
-0.454312
2.57681
-7.90592e-05
1.51145
0.0419354
1.10145
7.35301e-05
-9.39047e-05
-1.31674
0.259739
6.02277
0.000270668
-0.196656
-0.116661
-0.116646
-0.196646
1.38743
5.17462
0.000288747
-0.409897
-0.454297
-0.454343
-0.409903
2.57676
7.36259
0.000441445
-1.01924
-1.28343
-1.01922
-0.129387
-0.192519
-0.129383
2.57139
0.000458641
0.00045133
0.267
2.11327
4.53203
-0.408329
-0.689469
-0.689469
-1.10146
-1.1233
-1.1233
7.36257
-0.192519
0.000275666
-1.28343
-1.01923
-1.01922
-0.192521
-0.129387
-0.129391
2.57138
0.000284454
0.266971
0.000279204
47.5176
0.000429783
-7.54534
-9.46567
-7.54537
2.18267
2.45467
2.18263
2.45471
-3.84235
0.000436991
-5.06381
-4.06866
-5.0639
-4.06857
0.000415872
-1.41769
45.0932
-0.000102301
-1.38706
2.99634
47.5176
0.000264157
-22.7699
-9.46566
-7.54539
-7.54538
2.18267
2.45468
2.45471
2.18263
-3.84238
0.000275664
-5.06383
-4.06861
-4.06858
-5.06385
22.3744
0.000254495
-1.41769
45.093
1.25036
-1.18924
1.98728e-05
-0.0611193
1.25036
-1.18924
-5.82667e-07
-6.75637e-06
-0.0611192
1.3326
3.50351e-05
-0.153236
1.38007
0.0444342
-1.2434
5.39716e-05
-0.181082
0.0710067
-9.02983e-07
-1.12361e-05
1.3326
-0.153236
1.38008
0.0444229
-1.5632e-06
-1.88002e-05
-1.2434
-0.181081
0.241275
0.730484
5.81123e-05
-0.48363
1.28343
-0.77917
-0.0206053
4.44462e-05
0.40833
-2.28695e-06
-2.27363e-05
0.241288
0.730483
-0.483633
1.28343
-3.39704e-07
-2.0091e-05
-0.779171
-0.0206052
-0.433848
-1.85152
5.35926e-05
-7.17905
9.46572
-7.35075
5.06416
4.78628e-06
1.80176
5.20397e-07
-2.68034e-05
-0.433849
-1.85152
-7.17906
9.46571
-5.77093e-06
-5.9564e-05
-7.3507
5.06414
-18.36
-15.1048
-2.48263e-05
-11.8383
4.5091
47.7899
-0.000552839
-3.94779e-06
26.2858
-8.39673e-05
-18.36
-15.1048
-1.96248e-07
-11.8384
-0.000556779
4.50913
47.79
1.77121
1.17188
3.2347e-05
1.77121
-1.70004e-06
-1.06735e-05
1.17189
-1.61566
-0.049529
3.55864e-05
-0.00638488
7.2358
9.45564e-05
0.421389
0.829398
0.421401
0.829417
-1.75331
-1.77115
-1.75332
0.000103743
7.64679
0.208026
0.118832
0.208018
0.118822
-1.06458
-5.8608e-06
1.34977
-1.41446
0.0646871
1.6716
-1.41805e-06
-1.12071e-05
-1.61566
-0.0495435
-0.00638493
7.2358
-6.81076e-06
-1.77115
-1.75332
-1.75333
0.421397
0.829392
0.829412
0.421407
-2.68831
7.6468
-6.37755e-06
0.208019
0.118838
0.11883
0.208011
-1.06459
-2.36583
-0.305749
5.80936e-05
7.55414
0.000117115
0.142424
0.052283
0.142428
0.0522909
0.000125707
6.78345
0.206981
0.152013
0.206969
0.152
0.0528578
-1.15964e-05
1.74837
-0.00723461
-0.0695159
1.48236
-1.59374e-06
-1.3961e-05
-2.36584
-0.30575
7.55412
-6.45968e-06
0.142424
0.0522921
0.0522983
0.142428
-0.296638
6.78346
-5.80784e-06
0.206975
0.152013
0.152002
0.206964
0.0528397
-1.31675
0.259748
5.1338e-05
6.02277
0.000130717
-0.196653
-0.116658
-0.196643
-0.116642
0.000138539
5.17461
-0.4099
-0.454318
-0.409901
-0.454311
2.57675
-1.38366e-05
1.51145
0.0419329
1.10145
-1.3178e-06
-1.88937e-05
-1.31675
0.25974
6.02277
-5.05071e-06
-0.196652
-0.116657
-0.116641
-0.196642
1.38742
5.1746
-4.48829e-06
-0.409897
-0.454303
-0.454321
-0.409899
2.57673
7.36254
0.000132332
-1.01923
-1.28343
-1.01922
-0.129391
-0.192524
-0.12939
2.57137
0.000140355
0.000136574
0.266959
2.11327
4.532
-0.408324
-0.68947
-0.689469
-1.10147
-1.1233
-1.1233
7.36254
-0.192521
-2.5467e-06
-1.28342
-1.01923
-1.01922
-0.192524
-0.129391
-0.129393
2.57137
-3.71898e-06
0.266949
-2.73252e-06
47.5175
0.000124353
-7.54535
-9.46566
-7.54536
2.18267
2.45468
2.18263
2.45471
-3.8424
0.000130629
-5.06379
-4.06862
-5.06386
-4.06855
0.000121911
-1.41771
45.0929
-2.96359e-05
-1.38707
2.99634
47.5175
-1.61388e-06
-22.77
-9.46567
-7.54536
-7.54535
2.18267
2.45468
2.45472
2.18263
-3.84241
-1.62668e-06
-5.0638
-4.06861
-4.06856
-5.06385
22.3743
-1.75269e-06
-1.41771
45.0929
1.25036
-1.18924
-7.91123e-06
-0.0611192
1.25036
-1.18924
-2.86384e-05
2.10382e-05
-0.0611197
1.3326
-1.30854e-05
-0.153235
1.38008
0.0444244
-1.2434
-2.05163e-05
-0.181082
0.0710077
-4.95949e-05
3.68736e-05
1.3326
-0.153236
1.38007
0.0444337
-7.50184e-05
5.6648e-05
-1.2434
-0.181082
0.241277
0.730484
-2.38762e-05
-0.483633
1.28343
-0.77917
-0.0206053
-2.15224e-05
0.408331
-8.59027e-05
6.14094e-05
0.241278
0.730485
-0.48363
1.28343
-6.81045e-05
4.49751e-05
-0.77917
-0.020606
-0.433847
-1.85152
-2.89689e-05
-7.17906
9.46573
-7.35074
5.06415
-5.64887e-05
1.80177
-8.3487e-05
5.3586e-05
-0.433848
-1.85152
-7.17906
9.4657
-6.92748e-05
-1.90274e-07
-7.35071
5.06415
-18.36
-15.1048
-8.24892e-05
-11.8384
4.50913
47.79
-0.000557534
-6.5218e-05
26.2858
-2.68315e-05
-18.3599
-15.1048
-5.08805e-06
-11.8383
-0.000552796
4.5091
47.7899
1.77121
1.17189
-1.42137e-05
1.77121
-5.30618e-05
3.61123e-05
1.17188
-1.61567
-0.0495293
-1.40031e-05
-0.00638479
7.2358
-0.000108633
0.421391
0.829398
0.421401
0.829419
-1.75332
-1.77115
-1.75333
-0.000117525
7.6468
0.208027
0.118832
0.208019
0.118824
-1.06459
1.7633e-05
1.34977
-1.41446
0.0646856
1.6716
-5.15e-05
3.86859e-05
-1.61566
-0.0495431
-0.00638512
7.2358
-0.000212206
-1.77115
-1.75331
-1.75332
0.421397
0.82939
0.829409
0.421408
-2.6883
7.6468
-0.000229894
0.208019
0.118839
0.118828
0.208011
-1.06458
-2.36584
-0.30575
-1.71564e-05
7.55413
-0.000129869
0.142425
0.0522845
0.142429
0.0522907
-0.000137362
6.78346
0.206981
0.152013
0.206971
0.152002
0.05284
4.23526e-05
1.74836
-0.00723376
-0.0695163
1.48236
-7.74825e-05
6.13166e-05
-2.36583
-0.305749
7.55413
-0.000255768
0.142423
0.0522904
0.0522986
0.142427
-0.296645
6.78345
-0.000271917
0.206974
0.152013
0.152
0.206962
0.0528586
-1.31675
0.25974
-2.07929e-05
6.02277
-0.000140884
-0.196652
-0.116657
-0.196642
-0.116641
-0.000147373
5.1746
-0.409897
-0.454303
-0.409899
-0.454321
2.57673
4.93114e-05
1.51145
0.0419346
1.10145
-7.59522e-05
5.37162e-05
-1.31675
0.259748
6.02278
-0.000280946
-0.196653
-0.116659
-0.116642
-0.196643
1.38741
5.17461
-0.000298029
-0.4099
-0.454318
-0.45431
-0.409901
2.57675
7.36254
-0.000138089
-1.01923
-1.28343
-1.01922
-0.129391
-0.192524
-0.129393
2.57137
-0.000147471
-0.000142409
0.266951
2.11327
4.53199
-0.408323
-0.689464
-0.689471
-1.10147
-1.1233
-1.1233
7.36254
-0.192518
-0.000280972
-1.28343
-1.01923
-1.01922
-0.192523
-0.12939
-0.12939
2.57138
-0.000292234
0.266961
-0.000284818
47.5175
-0.00012966
-7.54533
-9.46568
-7.54534
2.18267
2.45468
2.18263
2.45472
-3.84241
-0.000135748
-5.0638
-4.06861
-5.06384
-4.06856
-0.00012634
-1.41771
45.0929
3.63496e-05
-1.38707
2.99635
47.5175
-0.000261332
-22.77
-9.46566
-7.54537
-7.54537
2.18267
2.45468
2.45471
2.18263
-3.8424
-0.000278036
-5.0638
-4.06862
-4.06855
-5.06386
22.3743
-0.000255505
-1.4177
45.0929
1.25036
-1.18923
-3.65517e-05
-0.0611202
1.25035
-1.18922
-6.00147e-05
5.13219e-05
-0.0611216
1.3326
-6.28528e-05
-0.153236
1.38008
0.0444296
-1.2434
-9.84104e-05
-0.181085
0.0710112
-0.000104733
8.9811e-05
1.33259
-0.153237
1.38006
0.0444452
-0.000161128
0.000140633
-1.2434
-0.181083
0.241276
0.730488
-0.000109946
-0.483629
1.28343
-0.77917
-0.0206085
-9.36342e-05
0.408338
-0.00018613
0.000154071
0.241266
0.730481
-0.483624
1.28344
-0.000154768
0.000127015
-0.779179
-0.0206072
-0.433847
-1.85151
-0.000119546
-7.17905
9.46573
-7.35075
5.06416
-0.000125094
1.80178
-0.000194422
0.000158231
-0.433865
-1.85151
-7.17904
9.46571
-0.00016535
8.4431e-05
-7.35071
5.06414
-18.36
-15.1048
-0.000149714
-11.8383
4.50908
47.7899
-0.000566343
-0.000173328
26.2856
6.32975e-05
-18.3599
-15.1047
-1.65779e-05
-11.8381
-0.000537549
4.509
47.7899
1.77121
1.17189
-6.13091e-05
1.77121
-0.000106067
8.37254e-05
1.17187
-1.61566
-0.0495282
-6.48651e-05
-0.00638517
7.23577
-0.000317916
0.421396
0.829394
0.421397
0.829414
-1.75331
-1.77114
-1.75332
-0.000346666
7.64677
0.208018
0.11883
0.208016
0.118829
-1.06457
4.2023e-05
1.34976
-1.41444
0.0646844
1.67159