/*--------------------------------*- C++ -*----------------------------------*\
  =========                 |
  \\      /  F ield         | OpenFOAM: The Open Source CFD Toolbox
   \\    /   O peration     | Website:  https://openfoam.org
    \\  /    A nd           | Version:  10
     \\/     M anipulation  |
\*---------------------------------------------------------------------------*/
FoamFile
{
    format      ascii;
    class       volVectorField;
    location    "0";
    object      U;
}
// * * * * * * * * * * * * * * * * * * * * * * * * * * * * * * * * * * * * * //

dimensions      [0 1 -1 0 0 0 0];

internalField   nonuniform List<vector> 
8636
(
(0.148054 0.0667884 4.60668e-05)
(-0.143978 0.179651 4.87095e-05)
(-2.44909 2.59852 3.42766e-05)
(0.189876 0.177416 4.10538e-05)
(0.0656895 0.435749 4.38599e-05)
(1.68965 1.97043 2.01641e-05)
(0.293278 0.203676 3.85615e-05)
(0.408158 0.516333 3.33024e-05)
(1.28823 1.0657 1.86441e-05)
(0.371425 0.201816 3.61431e-05)
(0.517348 0.411876 3.20193e-05)
(1.04595 0.5893 1.615e-05)
(0.426559 0.183458 3.34246e-05)
(0.56371 0.314189 2.93179e-05)
(0.88725 0.336281 1.89305e-05)
(0.343807 -0.0200404 2.18683e-05)
(0.287462 -0.0110599 2.50988e-05)
(0.148056 0.066787 2.53264e-05)
(-0.143978 0.179648 2.43834e-05)
(-2.44912 2.59856 7.29385e-06)
(0.345907 -0.040973 1.7093e-05)
(0.345293 -0.00463038 2.05414e-05)
(0.295383 0.032565 2.49854e-05)
(0.189874 0.177413 2.13777e-05)
(0.0656825 0.435742 2.16994e-05)
(1.68964 1.97043 1.22213e-05)
(0.377549 -0.0268548 1.49245e-05)
(0.355668 0.0159647 1.74969e-05)
(0.323261 0.077883 1.96648e-05)
(0.293273 0.203672 2.01831e-05)
(0.408141 0.516333 1.6317e-05)
(1.28822 1.06571 8.8299e-06)
(0.397979 -0.0187915 1.44058e-05)
(0.378166 0.0254343 1.67463e-05)
(0.361975 0.0885572 1.85721e-05)
(0.371418 0.201813 1.89009e-05)
(0.517337 0.411881 1.54754e-05)
(1.04596 0.58931 6.78874e-06)
(0.415322 -0.0102025 1.38514e-05)
(0.399988 0.0316631 1.59504e-05)
(0.396233 0.0905987 1.75498e-05)
(0.426551 0.183456 1.77317e-05)
(0.563698 0.314195 1.48243e-05)
(0.887238 0.336286 1.14407e-05)
(0.347921 -0.0323545 8.06712e-06)
(0.343809 -0.0200407 9.78492e-06)
(0.287464 -0.0110604 1.09315e-05)
(0.148057 0.0667865 9.72128e-06)
(-0.143979 0.179646 7.95494e-06)
(-2.44913 2.59857 -1.18898e-05)
(0.345909 -0.0409736 6.96444e-06)
(0.345295 -0.00463108 8.47123e-06)
(0.295384 0.032564 1.10626e-05)
(0.189873 0.177411 6.53662e-06)
(0.0656787 0.435738 6.84684e-06)
(1.68963 1.97042 1.37215e-06)
(0.377551 -0.0268556 4.67829e-06)
(0.355669 0.0159636 5.49161e-06)
(0.323261 0.0778815 6.13759e-06)
(0.29327 0.20367 6.14154e-06)
(0.408132 0.516333 4.61627e-06)
(1.28821 1.06571 4.47787e-06)
(0.39798 -0.0187926 4.48725e-06)
(0.378166 0.0254329 5.22929e-06)
(0.361974 0.0885556 5.77487e-06)
(0.371414 0.201812 5.81232e-06)
(0.517332 0.411884 4.93319e-06)
(1.04596 0.589318 4.21733e-06)
(0.415322 -0.0102038 4.29833e-06)
(0.399989 0.0316616 4.98892e-06)
(0.396232 0.0905972 5.48121e-06)
(0.426548 0.183456 5.35957e-06)
(0.56369 0.314198 4.13338e-06)
(0.887228 0.336299 3.2704e-06)
(0.347922 -0.0323546 -1.68091e-06)
(0.34381 -0.0200407 -1.48096e-06)
(0.287464 -0.0110605 -1.78138e-06)
(0.148057 0.0667866 -3.63585e-06)
(-0.14398 0.179646 -4.99053e-06)
(-2.44913 2.59857 -2.27042e-05)
(0.34591 -0.0409737 -2.79023e-06)
(0.345295 -0.00463118 -2.83335e-06)
(0.295385 0.0325639 -1.55282e-06)
(0.189873 0.177411 -6.84387e-06)
(0.0656783 0.435738 -5.37796e-06)
(1.68963 1.97042 -1.4461e-06)
(0.377551 -0.0268556 -5.3442e-06)
(0.355669 0.0159636 -6.04566e-06)
(0.323261 0.0778815 -6.56028e-06)
(0.29327 0.20367 -6.43806e-06)
(0.408132 0.516333 -4.78071e-06)
(1.28821 1.06571 -4.53659e-06)
(0.39798 -0.0187926 -5.14161e-06)
(0.378166 0.0254329 -5.79969e-06)
(0.361974 0.0885556 -6.18299e-06)
(0.371414 0.201812 -6.09923e-06)
(0.517332 0.411884 -5.08667e-06)
(1.04596 0.589318 -4.26139e-06)
(0.415323 -0.0102038 -4.94059e-06)
(0.399989 0.0316617 -5.51608e-06)
(0.396232 0.0905972 -5.86849e-06)
(0.426548 0.183456 -5.63332e-06)
(0.563691 0.314198 -4.27219e-06)
(0.887228 0.336299 -3.29747e-06)
(0.347921 -0.0323545 -1.15822e-05)
(0.343809 -0.0200406 -1.29143e-05)
(0.287463 -0.0110603 -1.47127e-05)
(0.148057 0.0667869 -1.77978e-05)
(-0.143979 0.179646 -1.84814e-05)
(-2.44913 2.59856 -3.63829e-05)
(0.345908 -0.0409733 -1.27211e-05)
(0.345294 -0.00463066 -1.44054e-05)
(0.295384 0.0325646 -1.46224e-05)
(0.189875 0.177413 -2.16824e-05)
(0.0656807 0.435739 -1.84814e-05)
(1.68964 1.97043 -1.23333e-05)
(0.37755 -0.0268547 -1.5627e-05)
(0.355668 0.0159647 -1.80642e-05)
(0.323261 0.077883 -2.00944e-05)
(0.293273 0.203672 -2.0476e-05)
(0.408141 0.516333 -1.64911e-05)
(1.28822 1.06571 -8.89877e-06)
(0.397979 -0.0187914 -1.50954e-05)
(0.378166 0.0254343 -1.72779e-05)
(0.361975 0.0885573 -1.89839e-05)
(0.371418 0.201813 -1.91791e-05)
(0.517337 0.411881 -1.56274e-05)
(1.04596 0.58931 -6.82779e-06)
(0.415322 -0.0102024 -1.45248e-05)
(0.399989 0.0316632 -1.64947e-05)
(0.396233 0.0905987 -1.79572e-05)
(0.426552 0.183456 -1.79954e-05)
(0.563698 0.314195 -1.49519e-05)
(0.887238 0.336286 -1.1445e-05)
(0.347918 -0.0323543 -2.19359e-05)
(0.343806 -0.0200403 -2.53165e-05)
(0.287461 -0.0110597 -2.95158e-05)
(0.148056 0.066788 -3.54602e-05)
(-0.143978 0.179647 -3.61651e-05)
(-2.44911 2.59854 -5.86847e-05)
(0.345906 -0.0409726 -2.30697e-05)
(0.345291 -0.00462975 -2.70938e-05)
(0.295382 0.0325662 -2.98106e-05)
(0.189876 0.177416 -4.13462e-05)
(0.0656865 0.435744 -3.62922e-05)
(1.68965 1.97043 -2.02478e-05)
(0.377547 -0.0268529 -2.68989e-05)
(0.355666 0.0159671 -3.15547e-05)
(0.323261 0.0778863 -3.63616e-05)
(0.293279 0.203676 -3.88477e-05)
(0.408158 0.516333 -3.34712e-05)
(1.28823 1.0657 -1.86733e-05)
(0.397976 -0.0187889 -2.58244e-05)
(0.378165 0.0254374 -3.01478e-05)
(0.361977 0.0885609 -3.42831e-05)
(0.371425 0.201817 -3.64185e-05)
(0.517349 0.411876 -3.21701e-05)
(1.04595 0.5893 -1.61771e-05)
(0.415321 -0.0101993 -2.48081e-05)
(0.399988 0.0316666 -2.85875e-05)
(0.396235 0.0906023 -3.21757e-05)
(0.426559 0.183458 -3.36887e-05)
(0.56371 0.314189 -2.94493e-05)
(0.88725 0.336281 -1.89387e-05)
(0.347913 -0.0323536 -3.32666e-05)
(0.3438 -0.0200395 -3.95196e-05)
(0.287455 -0.0110585 -4.77735e-05)
(0.148052 0.0667902 -6.03241e-05)
(-0.143979 0.17965 -6.38479e-05)
(-2.44907 2.59849 -9.52306e-05)
(0.3459 -0.04097 -3.46096e-05)
(0.345285 -0.00462764 -4.17665e-05)
(0.295376 0.0325694 -4.85802e-05)
(0.189877 0.177424 -7.00024e-05)
(0.065695 0.435755 -6.47689e-05)
(1.68968 1.97045 -5.17451e-05)
(0.377541 -0.0268486 -3.89004e-05)
(0.355661 0.0159715 -4.70631e-05)
(0.323258 0.0778927 -5.71013e-05)
(0.293287 0.203684 -6.49785e-05)
(0.408188 0.516333 -6.17635e-05)
(1.28824 1.0657 -3.57324e-05)
(0.397973 -0.0187839 -3.72224e-05)
(0.378162 0.0254431 -4.46298e-05)
(0.361978 0.0885679 -5.32783e-05)
(0.371433 0.201823 -6.10064e-05)
(0.517377 0.411871 -5.615e-05)
(1.04595 0.589291 -4.00436e-05)
(0.415318 -0.0101932 -3.51068e-05)
(0.399988 0.0316729 -4.21077e-05)
(0.396238 0.0906086 -4.94408e-05)
(0.426573 0.183463 -5.62367e-05)
(0.563723 0.314176 -5.39298e-05)
(0.887254 0.336281 -3.46434e-05)
(0.347905 -0.0323527 -4.6074e-05)
(0.34379 -0.0200384 -5.5928e-05)
(0.287443 -0.011056 -7.04099e-05)
(0.148038 0.0667945 -9.58958e-05)
(-0.143988 0.179656 -0.000109849)
(-2.44899 2.5984 -0.000172747)
(0.345892 -0.0409671 -4.75862e-05)
(0.345275 -0.0046249 -5.86424e-05)
(0.295364 0.0325755 -7.25416e-05)
(0.189872 0.177438 -0.000111469)
(0.0657032 0.435774 -0.000113565)
(1.68974 1.97044 -0.000114149)
(0.377534 -0.0268436 -5.14554e-05)
(0.355652 0.0159793 -6.36612e-05)
(0.323252 0.0779045 -8.21364e-05)
(0.293295 0.203698 -0.000102271)
(0.408232 0.516333 -0.000114206)
(1.28826 1.06565 -8.22733e-05)
(0.397968 -0.0187766 -4.89843e-05)
(0.378156 0.0254532 -5.96051e-05)
(0.361976 0.0885815 -7.54162e-05)
(0.371445 0.201835 -9.31213e-05)
(0.517419 0.411858 -0.00010473)
(1.04597 0.589222 -7.56432e-05)
(0.415314 -0.0101841 -4.58191e-05)
(0.399987 0.0316838 -5.54819e-05)
(0.396242 0.0906213 -6.92825e-05)
(0.426584 0.183471 -8.51999e-05)
(0.563745 0.314151 -0.000102041)
(0.887267 0.336215 -6.61489e-05)
(0.347893 -0.0323516 -5.97769e-05)
(0.343774 -0.0200367 -7.28664e-05)
(0.28742 -0.0110517 -9.69064e-05)
(0.148004 0.0668024 -0.000143985)
(-0.144025 0.179665 -0.000185392)
(-2.44885 2.59821 -0.000323843)
(0.345882 -0.0409633 -6.1582e-05)
(0.34526 -0.00461959 -7.52523e-05)
(0.295341 0.032587 -0.000100465)
(0.18985 0.177465 -0.000166623)
(0.0656992 0.43581 -0.00019406)
(1.68983 1.9704 -0.000252593)
(0.377525 -0.0268347 -6.40064e-05)
(0.355639 0.0159923 -7.85301e-05)
(0.323235 0.0779261 -0.000108898)
(0.293293 0.203729 -0.000148052)
(0.408284 0.516352 -0.000187022)
(1.28823 1.0655 -0.00013705)
(0.397966 -0.0187641 -5.95008e-05)
(0.37815 0.0254696 -7.26401e-05)
(0.361972 0.0886045 -9.69594e-05)
(0.37146 0.201858 -0.000131436)
(0.517461 0.41183 -0.000166982)
(1.04599 0.589049 -0.000121068)
(0.415313 -0.0101702 -5.49195e-05)
(0.399984 0.0316999 -6.68645e-05)
(0.396241 0.0906412 -8.80474e-05)
(0.426588 0.183484 -0.00011739)
(0.563734 0.314108 -0.000158735)
(0.887184 0.336065 -9.43952e-05)
(0.347881 -0.0323495 -7.71842e-05)
(0.343754 -0.020034 -8.63923e-05)
(0.287381 -0.0110454 -0.000119181)
(0.147931 0.0668176 -0.000199982)
(-0.144123 0.179685 -0.000295312)
(-2.4486 2.59783 -0.000627933)
(0.341438 -0.192984 -6.47812e-05)
(0.34588 -0.0409532 -7.92482e-05)
(0.345239 -0.00461079 -8.66215e-05)
(0.295302 0.0326058 -0.000121399)
(0.189805 0.177524 -0.000228595)
(0.0656728 0.435888 -0.000304299)
(1.69002 1.97024 -0.000601773)
(0.377526 -0.0268156 -7.10505e-05)
(0.355625 0.0160156 -8.44313e-05)
(0.323214 0.0779647 -0.000127918)
(0.293296 0.20379 -0.000191927)
(0.408362 0.51639 -0.000275941)
(1.28821 1.06519 -0.000240294)
(0.397973 -0.0187417 -6.12191e-05)
(0.37815 0.025495 -7.505e-05)
(0.36197 0.0886412 -0.000110736)
(0.371471 0.201901 -0.000164858)
(0.517485 0.411812 -0.000233583)
(1.0459 0.588736 -0.000146529)
(0.415321 -0.0101497 -5.52737e-05)
(0.399985 0.0317228 -6.85335e-05)
(0.39624 0.0906706 -9.82313e-05)
(0.426595 0.183514 -0.000141609)
(0.563695 0.314096 -0.000189794)
(0.886955 0.335809 -8.62767e-05)
(0.34789 -0.0323471 -0.000112617)
(0.343739 -0.0200292 -8.86116e-05)
(0.287322 -0.0110349 -0.000124778)
(0.147803 0.066846 -0.00024883)
(-0.144343 0.179731 -0.00043997)
(-2.44816 2.59704 -0.00122196)
(0.341418 -0.192964 -0.000123202)
(0.345903 -0.040934 -0.000110446)
(0.345225 -0.00459245 -8.14217e-05)
(0.295256 0.032639 -0.000128369)
(0.189737 0.177648 -0.000274307)
(0.0656153 0.436077 -0.000445573)
(1.69039 1.96963 -0.00126511)
(0.377569 -0.0267742 -2.954e-05)
(0.355624 0.016055 -5.70313e-05)
(0.323203 0.0780303 -0.00012601)
(0.293318 0.203897 -0.000213778)
(0.408427 0.516482 -0.000364772)
(1.28802 1.06439 -0.000260427)
(0.398017 -0.0187122 -9.93327e-06)
(0.378155 0.025529 -4.82056e-05)
(0.361972 0.0886951 -0.000104656)
(0.371493 0.201972 -0.000178728)
(0.517511 0.411859 -0.000275839)
(1.0456 0.588064 -9.59201e-05)
(0.415374 -0.0101405 -1.4247e-05)
(0.399998 0.0317469 -4.61342e-05)
(0.396243 0.0907102 -9.05389e-05)
(0.42661 0.183562 -0.000146176)
(0.56373 0.314143 -0.000199906)
(0.886766 0.335315 -3.48925e-05)
(0.34803 -0.0323344 -0.000256819)
(0.343754 -0.0200211 -4.20348e-05)
(0.287254 -0.0110171 -9.78342e-05)
(0.147601 0.0669074 -0.000261666)
(-0.144748 0.17983 -0.000551944)
(-2.44733 2.59574 -0.00209403)
(0.341282 -0.193042 -0.000227241)
(0.346079 -0.040798 -0.000211219)
(0.345232 -0.00454967 -3.9586e-06)
(0.295203 0.032716 -9.56505e-05)
(0.189709 0.177862 -0.000249545)
(0.0656303 0.436421 -0.000528378)
(1.69078 1.96772 -0.00184714)
(0.377742 -0.0266234 0.000482369)
(0.35562 0.0161085 4.21863e-05)
(0.323206 0.0781312 -8.31312e-05)
(0.293369 0.204051 -0.000181419)
(0.408527 0.51663 -0.000380921)
(1.28749 1.06254 -0.000164864)
(0.398129 -0.0187304 0.000244522)
(0.378146 0.0255458 3.27973e-05)
(0.361971 0.0887567 -6.73378e-05)
(0.371529 0.202062 -0.000150344)
(0.517631 0.411955 -0.000256348)
(1.04524 0.586826 6.76615e-06)
(0.415552 -0.0102627 0.000131088)
(0.400018 0.0317385 1.28396e-05)
(0.396241 0.0907465 -5.86548e-05)
(0.426625 0.183615 -0.000118852)
(0.563794 0.314189 -0.000178415)
(0.886501 0.334519 3.257e-05)
(0.348917 -0.0324291 -0.000284347)
(0.343751 -0.0199699 7.08924e-05)
(0.28717 -0.0109766 -3.0832e-05)
(0.147473 0.0670166 -0.000182377)
(-0.145176 0.18008 -0.000458382)
(-2.44579 2.59436 -0.00190092)
(0.340112 -0.208101 -0.00153454)
(0.347881 -0.0400846 0.000131604)
(0.345082 -0.00430517 0.000111045)
(0.295157 0.0328655 -3.04353e-05)
(0.189759 0.17811 -9.81452e-05)
(0.0657954 0.436891 -0.000343774)
(1.69097 1.96482 -0.00112932)
(0.355163 0.0161686 5.65539e-05)
(0.323179 0.0782365 -2.40606e-05)
(0.293423 0.204191 -7.27608e-05)
(0.408605 0.516772 -0.000179194)
(1.28662 1.06011 -3.95266e-05)
(0.377948 0.025473 4.11847e-05)
(0.36193 0.0887987 -1.99468e-05)
(0.371541 0.202137 -6.13556e-05)
(0.517715 0.412062 -0.000117848)
(1.0447 0.585496 4.32558e-05)
(0.399959 0.0316528 2.28644e-05)
(0.396215 0.0907625 -1.79436e-05)
(0.426626 0.183659 -4.70032e-05)
(0.563804 0.314248 -7.50104e-05)
(0.886108 0.333761 3.14843e-05)
(0.35172 -0.0958771 -0.000838742)
(0.320574 -0.0843065 -0.00109729)
(-0.0443198 0.0779522 6.35952e-05)
(-0.20177 0.0887929 6.25677e-05)
(-1.10557 0.618997 4.09902e-05)
(-8.15203 -0.634776 0.000469715)
(-1.95908 1.65021 4.02883e-05)
(-8.1521 -0.634814 -0.000444676)
(0.0333903 0.110144 6.39444e-05)
(-0.143979 0.17965 6.36651e-05)
(-0.715398 0.738078 7.023e-05)
(-0.0792715 0.371143 6.5426e-05)
(-0.11649 0.844766 6.46915e-05)
(0.304692 -0.0280646 2.91954e-05)
(0.212074 -0.00189878 3.09674e-05)
(0.182319 0.0275111 4.6571e-05)
(-0.0443186 0.0779508 4.77278e-05)
(0.182327 0.0275122 3.37626e-05)
(-0.0443181 0.0779506 3.70012e-05)
(-0.201769 0.0887923 5.04892e-05)
(-1.10557 0.618999 7.43944e-05)
(-0.201769 0.0887911 3.49266e-05)
(-1.10557 0.618997 1.06261e-05)
(-1.95909 1.65022 7.70361e-05)
(-8.15212 -0.634825 0.000457234)
(-1.9591 1.65024 9.34995e-06)
(-8.15215 -0.634842 -0.000448232)
(0.287461 -0.0110598 2.90075e-05)
(0.211568 0.0120463 2.45723e-05)
(0.285266 0.0155118 3.1392e-05)
(0.245445 0.0395288 3.30524e-05)
(0.0333924 0.110141 4.76371e-05)
(0.172426 0.11044 4.62039e-05)
(0.0639649 0.157104 4.67862e-05)
(0.148056 0.066788 3.51652e-05)
(0.0333929 0.110141 3.61646e-05)
(0.172427 0.11044 3.45649e-05)
(0.0639651 0.157104 3.57856e-05)
(-0.715396 0.738075 4.73391e-05)
(-0.079272 0.371139 4.69858e-05)
(-0.116483 0.844756 4.74091e-05)
(-0.143978 0.179647 3.60766e-05)
(-0.715395 0.738073 3.77032e-05)
(-0.0792735 0.371135 3.5862e-05)
(-0.116483 0.84475 3.3902e-05)
(0.356118 -0.0250246 2.43021e-05)
(0.356121 -0.0250248 1.40192e-05)
(0.304693 -0.0280648 2.50974e-05)
(0.212072 -0.0018984 2.7556e-05)
(0.304694 -0.0280651 1.43476e-05)
(0.212075 -0.00189907 1.45685e-05)
(0.182324 0.0275114 2.57236e-05)
(-0.0443179 0.07795 2.39455e-05)
(0.182327 0.0275116 1.69116e-05)
(-0.0443186 0.0779498 1.91834e-05)
(-0.201769 0.0887907 2.58999e-05)
(-1.10557 0.619 4.834e-05)
(-0.201771 0.0887901 1.69296e-05)
(-1.10557 0.618998 -8.20114e-06)
(-1.9591 1.65025 5.05267e-05)
(-8.15216 -0.634846 0.000456299)
(-1.95911 1.65025 -1.03554e-05)
(-8.15218 -0.634855 -0.000451779)
(0.318496 -0.0826164 7.95611e-06)
(0.349841 -0.0168982 2.07031e-05)
(0.343924 -0.0175354 1.87474e-05)
(0.347921 -0.0323545 1.0894e-05)
(0.349844 -0.0168984 1.20318e-05)
(0.329166 -0.0364116 1.21158e-05)
(0.343926 -0.0175356 1.31271e-05)
(0.328273 -0.0226808 2.42565e-05)
(0.341133 -0.0105229 2.04187e-05)
(0.32059 -0.00508802 2.19982e-05)
(0.343809 -0.0200406 1.2296e-05)
(0.328275 -0.0226811 1.37524e-05)
(0.341135 -0.0105231 1.41842e-05)
(0.320591 -0.00508833 1.52022e-05)
(0.211569 0.0120474 3.3849e-05)
(0.285268 0.0155111 2.34883e-05)
(0.245445 0.0395283 2.47182e-05)
(0.287463 -0.0110603 1.42171e-05)
(0.21157 0.012046 8.20849e-06)
(0.285269 0.0155107 1.60221e-05)
(0.245446 0.0395276 1.65479e-05)
(0.0333929 0.11014 2.53387e-05)
(0.172428 0.110438 2.55809e-05)
(0.0639648 0.157101 2.48601e-05)
(0.148057 0.0667869 1.73948e-05)
(0.0333925 0.110139 1.76129e-05)
(0.172428 0.110438 1.68993e-05)
(0.0639643 0.157101 1.74726e-05)
(-0.715394 0.738071 2.27485e-05)
(-0.0792746 0.371133 2.40056e-05)
(-0.11648 0.844745 2.40834e-05)
(-0.143979 0.179646 1.83096e-05)
(-0.715395 0.738071 1.80082e-05)
(-0.079276 0.371131 1.72504e-05)
(-0.116481 0.844743 1.51681e-05)
(0.356121 -0.0250249 1.05625e-05)
(0.356122 -0.025025 1.3777e-06)
(0.304695 -0.0280652 1.088e-05)
(0.212074 -0.0018989 1.20895e-05)
(0.304695 -0.0280653 1.38674e-06)
(0.212075 -0.00189931 9.08919e-07)
(0.182326 0.0275112 9.93093e-06)
(-0.0443186 0.0779494 7.53356e-06)
(0.182326 0.0275107 3.15032e-06)
(-0.044319 0.0779495 5.47253e-06)
(-0.201771 0.0887897 9.53916e-06)
(-1.10558 0.619001 3.12421e-05)
(-0.201771 0.0887898 3.38648e-06)
(-1.10558 0.618998 -2.05845e-05)
(-1.95911 1.65025 3.21991e-05)
(-8.15218 -0.634857 0.000454019)
(-1.95911 1.65025 -2.19905e-05)
(-8.15218 -0.63486 -0.0004532)
(0.318496 -0.0826157 9.9622e-06)
(0.318497 -0.0826163 -1.33675e-06)
(0.349844 -0.0168984 9.18133e-06)
(0.329166 -0.0364117 6.99952e-06)
(0.343926 -0.0175357 7.651e-06)
(0.347922 -0.0323546 1.08264e-06)
(0.349845 -0.0168985 1.06359e-06)
(0.329167 -0.0364118 2.16842e-06)
(0.343927 -0.0175358 2.33702e-06)
(0.328275 -0.0226812 1.06507e-05)
(0.341136 -0.0105234 8.27425e-06)
(0.320592 -0.00508861 8.87597e-06)
(0.34381 -0.0200407 8.98623e-07)
(0.328276 -0.0226813 1.20199e-06)
(0.341136 -0.0105235 2.53914e-06)
(0.320592 -0.0050887 2.73069e-06)
(0.21157 0.0120465 1.83852e-05)
(0.285269 0.0155104 9.43405e-06)
(0.245446 0.0395274 9.89603e-06)
(0.287464 -0.0110605 1.29589e-06)
(0.21157 0.0120459 -5.43778e-06)
(0.285269 0.0155103 2.84059e-06)
(0.245447 0.0395271 2.85959e-06)
(0.0333924 0.110139 9.42674e-06)
(0.172428 0.110437 1.00884e-05)
(0.0639639 0.1571 9.23175e-06)
(0.148057 0.0667865 3.30114e-06)
(0.0333922 0.110139 3.46497e-06)
(0.172428 0.110437 2.88608e-06)
(0.0639637 0.1571 3.58146e-06)
(-0.715396 0.73807 6.86562e-06)
(-0.0792769 0.371131 8.45771e-06)
(-0.116482 0.844742 8.84574e-06)
(-0.14398 0.179646 4.85103e-06)
(-0.715397 0.738069 4.83358e-06)
(-0.0792774 0.37113 3.90333e-06)
(-0.116482 0.844742 2.52696e-06)
(0.356122 -0.025025 -1.89546e-06)
(0.356121 -0.0250249 -1.10856e-05)
(0.304695 -0.0280653 -1.86833e-06)
(0.212075 -0.0018992 -1.34661e-06)
(0.304695 -0.0280652 -1.1367e-05)
(0.212074 -0.00189894 -1.25583e-05)
(0.182326 0.0275112 -3.61308e-06)
(-0.0443189 0.0779494 -5.6801e-06)
(0.182326 0.027511 -1.04372e-05)
(-0.0443184 0.0779494 -7.62167e-06)
(-0.201771 0.0887896 -3.47385e-06)
(-1.10558 0.619 1.97956e-05)
(-0.201771 0.0887897 -9.38504e-06)
(-1.10557 0.618998 -3.19088e-05)
(-1.95911 1.65025 2.14027e-05)
(-8.15218 -0.63486 0.000453092)
(-1.95911 1.65025 -3.28339e-05)
(-8.15218 -0.634857 -0.00045399)
(0.318497 -0.0826164 6.7383e-07)
(0.318496 -0.0826157 -1.07133e-05)
(0.349845 -0.0168985 -1.67848e-06)
(0.329167 -0.0364118 -2.8385e-06)
(0.343927 -0.0175358 -2.97233e-06)
(0.347921 -0.0323544 -8.74162e-06)
(0.349844 -0.0168984 -9.85096e-06)
(0.329166 -0.0364117 -7.71607e-06)
(0.343926 -0.0175357 -8.31109e-06)
(0.328276 -0.0226813 -1.72475e-06)
(0.341136 -0.0105234 -3.12959e-06)
(0.320592 -0.0050887 -3.2646e-06)
(0.343809 -0.0200407 -1.04089e-05)
(0.328275 -0.0226812 -1.11786e-05)
(0.341136 -0.0105234 -8.87671e-06)
(0.320592 -0.0050886 -9.4152e-06)
(0.21157 0.012046 5.02521e-06)
(0.285269 0.0155103 -3.31236e-06)
(0.245447 0.0395272 -3.26385e-06)
(0.287464 -0.0110604 -1.14216e-05)
(0.21157 0.0120465 -1.88219e-05)
(0.285269 0.0155104 -9.90995e-06)
(0.245447 0.0395274 -1.03073e-05)
(0.0333922 0.110139 -3.72549e-06)
(0.172428 0.110437 -3.22191e-06)
(0.0639637 0.1571 -3.84452e-06)
(0.148057 0.0667864 -1.00633e-05)
(0.0333925 0.110139 -9.69248e-06)
(0.172428 0.110437 -1.04321e-05)
(0.063964 0.1571 -9.49828e-06)
(-0.715397 0.738069 -5.02885e-06)
(-0.0792773 0.37113 -4.09576e-06)
(-0.116482 0.844741 -2.70924e-06)
(-0.143979 0.179646 -7.94766e-06)
(-0.715396 0.73807 -6.92229e-06)
(-0.0792768 0.371131 -8.62982e-06)
(-0.116482 0.844742 -8.97069e-06)
(0.356121 -0.0250248 -1.45475e-05)
(0.356119 -0.0250246 -2.48453e-05)
(0.304695 -0.0280651 -1.48405e-05)
(0.212075 -0.00189907 -1.50173e-05)
(0.304693 -0.0280648 -2.5606e-05)
(0.212072 -0.00189832 -2.7932e-05)
(0.182327 0.0275116 -1.73564e-05)
(-0.0443182 0.0779495 -1.94023e-05)
(0.182324 0.0275116 -2.60598e-05)
(-0.0443178 0.0779501 -2.41788e-05)
(-0.20177 0.0887896 -1.70368e-05)
(-1.10557 0.619001 7.36763e-06)
(-0.201769 0.0887909 -2.60633e-05)
(-1.10557 0.618999 -4.87411e-05)
(-1.95911 1.65025 9.6353e-06)
(-8.15218 -0.634855 0.000451841)
(-1.9591 1.65024 -5.09883e-05)
(-8.15216 -0.634846 -0.00045632)
(0.318496 -0.0826164 -8.73248e-06)
(0.318495 -0.0826145 -2.03268e-05)
(0.349844 -0.0168984 -1.26988e-05)
(0.329166 -0.0364115 -1.28759e-05)
(0.343926 -0.0175356 -1.38105e-05)
(0.347919 -0.0323541 -1.89802e-05)
(0.349842 -0.0168982 -2.13987e-05)
(0.329164 -0.0364113 -1.79385e-05)
(0.343924 -0.0175353 -1.94435e-05)
(0.328275 -0.0226811 -1.42859e-05)
(0.341135 -0.0105231 -1.48015e-05)
(0.320592 -0.00508831 -1.57502e-05)
(0.343807 -0.0200404 -2.2505e-05)
(0.328273 -0.0226808 -2.48064e-05)
(0.341134 -0.0105229 -2.10446e-05)
(0.32059 -0.00508799 -2.25546e-05)
(0.21157 0.012046 -8.64542e-06)
(0.285269 0.0155107 -1.65066e-05)
(0.245446 0.0395276 -1.69733e-05)
(0.287462 -0.0110599 -2.56063e-05)
(0.211569 0.0120475 -3.42273e-05)
(0.285268 0.0155111 -2.39761e-05)
(0.245446 0.0395284 -2.51315e-05)
(0.0333928 0.110139 -1.79734e-05)
(0.172428 0.110438 -1.72722e-05)
(0.0639645 0.157101 -1.78003e-05)
(0.148056 0.0667872 -2.56706e-05)
(0.0333931 0.11014 -2.5654e-05)
(0.172428 0.110438 -2.59251e-05)
(0.063965 0.157102 -2.51676e-05)
(-0.715395 0.73807 -1.8302e-05)
(-0.0792758 0.371131 -1.7522e-05)
(-0.116481 0.844743 -1.53929e-05)
(-0.143978 0.179648 -2.45895e-05)
(-0.715394 0.738072 -2.30191e-05)
(-0.0792744 0.371133 -2.42944e-05)
(-0.116479 0.844746 -2.42949e-05)
(0.356118 -0.0250244 -2.88612e-05)
(0.356113 -0.0250239 -4.13146e-05)
(0.304692 -0.0280646 -2.97085e-05)
(0.212074 -0.00189878 -3.13031e-05)
(0.304688 -0.0280638 -4.29901e-05)
(0.212068 -0.0018974 -4.81471e-05)
(0.182327 0.0275122 -3.40253e-05)
(-0.0443178 0.0779506 -3.71242e-05)
(0.18232 0.027512 -4.71647e-05)
(-0.0443185 0.0779509 -4.7937e-05)
(-0.201769 0.088791 -3.49482e-05)
(-1.10557 0.619 -1.08839e-05)
(-0.201769 0.0887925 -5.06098e-05)
(-1.10557 0.618997 -7.49958e-05)
(-1.9591 1.65024 -9.6045e-06)
(-8.15215 -0.634842 0.00044832)
(-1.95909 1.65022 -7.74983e-05)
(-8.15212 -0.634823 -0.000457307)
(0.318493 -0.0826161 -1.8461e-05)
(0.318491 -0.082613 -3.05749e-05)
(0.349841 -0.0168981 -2.45029e-05)
(0.329163 -0.0364109 -2.33508e-05)
(0.343923 -0.0175349 -2.53553e-05)
(0.347914 -0.0323535 -2.99525e-05)
(0.349837 -0.0168977 -3.42656e-05)
(0.329161 -0.0364103 -2.88461e-05)
(0.34392 -0.0175343 -3.1623e-05)
(0.328272 -0.0226805 -2.84532e-05)
(0.341132 -0.0105224 -2.76242e-05)
(0.320589 -0.00508732 -2.98631e-05)
(0.343802 -0.0200398 -3.61778e-05)
(0.328268 -0.0226799 -4.10383e-05)
(0.341129 -0.0105218 -3.4756e-05)
(0.320586 -0.00508669 -3.79148e-05)
(0.211568 0.0120463 -2.49244e-05)
(0.285266 0.0155119 -3.18833e-05)
(0.245445 0.0395289 -3.34649e-05)
(0.287457 -0.0110589 -4.28876e-05)
(0.211565 0.0120491 -5.44368e-05)
(0.285264 0.0155127 -4.10739e-05)
(0.245443 0.0395305 -4.39813e-05)
(0.0333932 0.110141 -3.63742e-05)
(0.172428 0.11044 -3.48797e-05)
(0.0639653 0.157104 -3.60217e-05)
(0.148054 0.0667885 -4.63893e-05)
(0.0333926 0.110141 -4.78737e-05)
(0.172426 0.11044 -4.6534e-05)
(0.0639653 0.157104 -4.70194e-05)
(-0.715395 0.738073 -3.76817e-05)
(-0.0792733 0.371135 -3.60613e-05)
(-0.116483 0.84475 -3.39757e-05)
(-0.143978 0.179651 -4.88919e-05)
(-0.715395 0.738075 -4.74381e-05)
(-0.0792717 0.371139 -4.72035e-05)
(-0.116483 0.844756 -4.75393e-05)
(0.349531 -0.0941031 -2.67149e-05)
(0.356111 -0.0250235 -4.61738e-05)
(0.356101 -0.0250225 -6.13811e-05)
(0.304686 -0.0280634 -4.80893e-05)
(0.212071 -0.00189812 -5.31647e-05)
(0.304677 -0.0280617 -6.47088e-05)
(0.212056 -0.00189532 -7.58936e-05)
(0.182324 0.0275133 -5.69512e-05)
(-0.0443196 0.0779522 -6.38552e-05)
(0.182309 0.0275135 -7.72269e-05)
(-0.0443254 0.0779529 -8.57406e-05)
(-0.20177 0.0887928 -6.27238e-05)
(-1.10557 0.618999 -4.17533e-05)
(-0.201775 0.0887951 -9.13019e-05)
(-1.10558 0.618996 -0.0001249)
(-1.95908 1.65021 -4.09428e-05)
(-8.1521 -0.634812 0.000444659)
(-1.95906 1.65018 -0.000130869)
(-8.15203 -0.634776 -0.000469838)
(0.318489 -0.0826152 -2.90344e-05)
(0.318485 -0.0826105 -4.2116e-05)
(0.349835 -0.0168974 -3.78333e-05)
(0.329158 -0.0364095 -3.49606e-05)
(0.343917 -0.0175336 -3.8422e-05)
(0.347907 -0.0323525 -4.23941e-05)
(0.349828 -0.0168968 -4.91487e-05)
(0.329154 -0.0364085 -4.13052e-05)
(0.343912 -0.0175327 -4.56831e-05)
(0.328266 -0.0226794 -4.5485e-05)
(0.341125 -0.0105209 -4.2463e-05)
(0.320582 -0.00508542 -4.66304e-05)
(0.343793 -0.0200387 -5.21014e-05)
(0.328257 -0.0226781 -6.06808e-05)
(0.341121 -0.01052 -5.07912e-05)
(0.320577 -0.00508393 -5.61813e-05)
(0.211564 0.0120471 -4.67326e-05)
(0.28526 0.0155141 -5.10306e-05)
(0.24544 0.0395314 -5.52249e-05)
(0.287447 -0.0110567 -6.44037e-05)
(0.211556 0.0120522 -8.21281e-05)
(0.285255 0.015516 -6.25194e-05)
(0.245434 0.0395345 -6.91828e-05)
(0.0333907 0.110144 -6.41768e-05)
(0.172424 0.110444 -5.95781e-05)
(0.0639641 0.157109 -6.32494e-05)
(0.148047 0.0667913 -7.61802e-05)
(0.0333869 0.110145 -8.24884e-05)
(0.172419 0.110445 -7.6148e-05)
(0.0639606 0.157109 -8.08752e-05)
(-0.715397 0.738078 -7.04639e-05)
(-0.0792711 0.371143 -6.56204e-05)
(-0.116489 0.844766 -6.49226e-05)
(-0.143983 0.179656 -8.92455e-05)
(-0.715399 0.738083 -9.24027e-05)
(-0.0792708 0.37115 -8.59122e-05)
(-0.11649 0.844776 -9.00334e-05)
(0.349528 -0.094102 -3.14185e-05)
(0.349525 -0.094101 -3.77253e-05)
(0.356096 -0.0250218 -6.72239e-05)
(0.356078 -0.0250199 -8.48299e-05)
(0.304672 -0.028061 -7.09947e-05)
(0.212059 -0.00189638 -8.30214e-05)
(0.304655 -0.0280577 -9.08167e-05)
(0.212031 -0.00189104 -0.000112289)
(0.182313 0.0275154 -8.93387e-05)
(-0.0443296 0.0779556 -0.000106417)
(0.182282 0.0275165 -0.000117858)
(-0.0443515 0.0779565 -0.000145732)
(-0.20178 0.0887957 -0.000108999)
(-1.10558 0.618998 -9.91586e-05)
(-0.201803 0.0887986 -0.000159391)
(-1.1056 0.618993 -0.000218899)
(-1.95906 1.65015 -0.000102471)
(-8.15199 -0.634751 0.000433745)
(-1.95902 1.6501 -0.000235055)
(-8.15185 -0.634691 -0.000484024)
(0.318482 -0.0826138 -4.07994e-05)
(0.318477 -0.0826073 -5.49685e-05)
(0.349825 -0.0168965 -5.31436e-05)
(0.32915 -0.0364075 -4.80969e-05)
(0.343907 -0.0175318 -5.32707e-05)
(0.347895 -0.0323512 -5.60662e-05)
(0.349815 -0.0168957 -6.49938e-05)
(0.329145 -0.0364063 -5.49036e-05)
(0.343901 -0.0175309 -6.07555e-05)
(0.328253 -0.0226772 -6.60011e-05)
(0.341115 -0.0105188 -5.94933e-05)
(0.32057 -0.00508142 -6.64254e-05)
(0.343779 -0.0200372 -6.91869e-05)
(0.328237 -0.022675 -8.34642e-05)
(0.341107 -0.0105174 -6.82735e-05)
(0.320561 -0.00507863 -7.73284e-05)
(0.211551 0.0120492 -7.65127e-05)
(0.285247 0.0155187 -7.48704e-05)
(0.245427 0.0395363 -8.40122e-05)
(0.287427 -0.0110527 -9.02283e-05)
(0.211533 0.012058 -0.000118666)
(0.285237 0.0155224 -8.87568e-05)
(0.245415 0.0395425 -0.000101774)
(0.0333789 0.11015 -0.000107425)
(0.172413 0.110451 -9.49292e-05)
(0.0639539 0.157118 -0.000105642)
(0.148024 0.0667969 -0.000118079)
(0.0333652 0.110152 -0.000135932)
(0.172399 0.110456 -0.00011798)
(0.063941 0.15712 -0.000132742)
(-0.71541 0.738089 -0.000131821)
(-0.0792753 0.371159 -0.000116463)
(-0.11651 0.844796 -0.000123344)
(-0.144006 0.179666 -0.000156686)
(-0.715422 0.738099 -0.000176947)
(-0.0792831 0.371171 -0.000152058)
(-0.116521 0.844817 -0.00017088)
(0.349521 -0.0940994 -4.29819e-05)
(0.349516 -0.0940978 -5.00313e-05)
(0.356069 -0.0250189 -9.11367e-05)
(0.356038 -0.0250162 -0.00010632)
(0.304647 -0.0280565 -9.78084e-05)
(0.212033 -0.00189269 -0.000121562)
(0.304617 -0.0280515 -0.000115905)
(0.211981 -0.00188366 -0.000153838)
(0.182286 0.027519 -0.000132819)
(-0.0443644 0.0779624 -0.000173088)
(0.182227 0.0275225 -0.000166803)
(-0.0444228 0.0779646 -0.000231317)
(-0.201818 0.0887996 -0.000185604)
(-1.10562 0.618994 -0.000208804)
(-0.201883 0.0888028 -0.000261984)
(-1.10568 0.618983 -0.00038853)
(-1.95901 1.65004 -0.000222866)
(-8.15178 -0.634653 0.000415247)
(-1.95898 1.64992 -0.000434303)
(-8.15148 -0.63452 -0.000521761)
(0.318473 -0.0826123 -5.37012e-05)
(0.318468 -0.0826047 -7.14381e-05)
(0.349811 -0.0168953 -6.87128e-05)
(0.32914 -0.036405 -6.23335e-05)
(0.343894 -0.0175294 -6.80222e-05)
(0.347883 -0.0323497 -7.22129e-05)
(0.349798 -0.016894 -7.96483e-05)
(0.329134 -0.0364035 -7.06576e-05)
(0.343887 -0.0175266 -7.47077e-05)
(0.328231 -0.0226736 -8.9114e-05)
(0.341098 -0.0105151 -7.67731e-05)
(0.32055 -0.00507489 -8.82674e-05)
(0.343759 -0.0200348 -8.42116e-05)
(0.328205 -0.0226707 -0.000103974)
(0.341086 -0.0105129 -8.398e-05)
(0.320535 -0.00507242 -9.72938e-05)
(0.211521 0.0120536 -0.000114977)
(0.285223 0.0155266 -0.000102895)
(0.245399 0.039546 -0.000119814)
(0.287393 -0.011047 -0.000114903)
(0.211486 0.0120674 -0.000160277)
(0.285205 0.0155306 -0.000115753)
(0.245377 0.0395556 -0.000138158)
(0.0333421 0.110162 -0.000172056)
(0.172383 0.110466 -0.000143025)
(0.0639201 0.157137 -0.000168191)
(0.147973 0.0668077 -0.000170969)
(0.0333067 0.110168 -0.000210976)
(0.172353 0.110477 -0.000171387)
(0.0638865 0.157141 -0.000204288)
(-0.715458 0.738108 -0.000245276)
(-0.0793037 0.371187 -0.00020056)
(-0.116571 0.84485 -0.000232005)
(-0.144078 0.179683 -0.000257721)
(-0.715499 0.738123 -0.000324385)
(-0.0793336 0.37121 -0.000254159)
(-0.116607 0.844882 -0.00030791)
(0.349511 -0.0940963 -5.64289e-05)
(0.341442 -0.192987 -5.90705e-05)
(0.349503 -0.094093 -6.55962e-05)
(0.356024 -0.0250147 -0.000110208)
(0.355977 -0.0250101 -0.000113776)
(0.304604 -0.0280495 -0.00012066)
(0.211979 -0.00188581 -0.000162636)
(0.304557 -0.0280413 -0.000128096)
(0.211892 -0.00186876 -0.000187522)
(0.182227 0.027526 -0.000182427)
(-0.0444528 0.077977 -0.000265195)
(0.182123 0.0275329 -0.000212245)