/*--------------------------------*- C++ -*----------------------------------*\
  =========                 |
  \\      /  F ield         | OpenFOAM: The Open Source CFD Toolbox
   \\    /   O peration     | Website:  https://openfoam.org
    \\  /    A nd           | Version:  10
     \\/     M anipulation  |
\*---------------------------------------------------------------------------*/
FoamFile
{
    format      ascii;
    class       volScalarField;
    location    "2000";
    object      k;
}
// * * * * * * * * * * * * * * * * * * * * * * * * * * * * * * * * * * * * * //

dimensions      [0 2 -2 0 0 0 0];

internalField   nonuniform List<scalar> 
52338
(
0.213144
0.226749
0.425818
1.06306
1.46619
1.86708
0.193916
0.139661
0.110977
0.105192
0.15653
0.30004
0.746404
1.35665
1.94256
2.12664
2.02724
2.05317
2.07449
2.06994
0.169599
0.129187
0.103752
0.0873102
0.0791131
0.099306
0.253884
0.70894
2.39929
1.70207
1.59979
1.54242
1.3348
1.40965
1.32043
0.169532
0.128923
0.103329
0.0862428
0.0750104
0.0731872
0.12444
0.287008
0.757485
1.76479
1.89447
1.25096
0.802059
0.711344
0.658564
0.653818
0.67542
0.690407
0.169724
0.128979
0.103173
0.0857786
0.0737536
0.0669416
0.0803212
0.135323
0.250142
0.392735
0.543506
0.578232
0.49246
0.334639
0.291187
0.26423
0.248674
0.242655
0.242901
0.248961
0.169981
0.129186
0.103241
0.0856564
0.0733069
0.0649659
0.0648222
0.0846357
0.108493
0.129863
0.138175
0.140628
0.1355
0.11792
0.107343
0.100122
0.0949672
0.0915682
0.0892205
0.0882771
0.170252
0.129456
0.103428
0.0857224
0.0731949
0.0643137
0.0595718
0.0636303
0.0719915
0.079611
0.0806849
0.0776335
0.0716632
0.0662391
0.0609003
0.0570105
0.0537468
0.0511215
0.0489129
0.0471263
0.170519
0.129747
0.103668
0.0858818
0.073243
0.064118
0.0578403
0.0556274
0.0562895
0.0574392
0.0563855
0.0538643
0.0504033
0.0474034
0.0442751
0.0416937
0.0394814
0.0375932
0.0359418
0.0344945
0.170774
0.13004
0.103928
0.0860846
0.0733649
0.0640995
0.0572737
0.0528618
0.0502765
0.0485259
0.0464251
0.0440534
0.0415431
0.0392197
0.0369549
0.0349958
0.033268
0.0317355
0.030369
0.0291427
0.171014
0.130324
0.104191
0.0863049
0.0735221
0.0641507
0.0570959
0.0519235
0.0481354
0.0452109
0.0425791
0.0401489
0.0378318
0.0357176
0.0337895
0.0320525
0.0304886
0.0290783
0.0278107
0.0266638
0.17124
0.130597
0.10445
0.0865297
0.0736953
0.0642288
0.0570669
0.0515867
0.0473518
0.043963
0.0410648
0.0384867
0.0362588
0.0341771
0.0323152
0.0306361
0.0291238
0.0277533
0.0265166
0.0253923
0.171452
0.130857
0.104701
0.0867524
0.0738775
0.0643624
0.0570837
0.0514631
0.0470294
0.04343
0.0403849
0.0377472
0.0354367
0.0333687
0.0315264
0.0298605
0.0283583
0.0269957
0.0257647
0.0246431
0.171651
0.131104
0.10492
0.0869676
0.0740629
0.0645014
0.057159
0.0514259
0.0468814
0.0431629
0.0400235
0.0373252
0.0349752
0.0328889
0.0310398
0.0293721
0.0278691
0.026506
0.0252737
0.0241496
0.171838
0.131338
0.105177
0.0871865
0.0742778
0.0646242
0.0572387
0.0514422
0.0468182
0.0430212
0.0398119
0.0370662
0.034681
0.0325767
0.0307251
0.0290396
0.027536
0.0261696
0.0249332
0.0238043
0.172015
0.13156
0.105397
0.0873898
0.0744444
0.0647609
0.0573311
0.051489
0.0468069
0.0429514
0.0396922
0.036912
0.0344975
0.0323748
0.0305001
0.0288214
0.0273059
0.0259325
0.0246906
0.0235567
0.172181
0.131771
0.105606
0.0875797
0.074598
0.064892
0.0574306
0.0515527
0.0468275
0.0429256
0.0396361
0.0368231
0.0343837
0.0322434
0.0303521
0.0286603
0.0271344
0.0257514
0.0245
0.0233566
0.172337
0.131966
0.105796
0.0877472
0.0747328
0.0649949
0.0575031
0.0515926
0.0468271
0.0428905
0.0395616
0.0367144
0.0342433
0.0320727
0.0301496
0.0284267
0.0268726
0.0254629
0.0241854
0.0230161
0.172404
0.132012
0.105788
0.087675
0.0745889
0.0647883
0.0572349
0.0512674
0.0464379
0.0424333
0.0390428
0.0361382
0.0336079
0.0313915
0.0294273
0.0276699
0.0260847
0.0246482
0.0233458
0.0221543
0.212721
0.187986
0.313205
0.723622
1.35564
1.61685
0.193886
0.139525
0.110519
0.102421
0.146807
0.273893
0.632445
1.07831
1.94093
2.12976
2.03159
2.05396
2.07291
2.06979
0.169575
0.129177
0.103762
0.0873007
0.0790868
0.0978162
0.243055
0.597323
2.19837
1.69507
1.6101
1.54959
1.33753
1.41077
1.32149
0.169535
0.128916
0.103327
0.0862372
0.0749936
0.073113
0.123152
0.249128
0.676164
1.42346
1.76931
0.919549
0.802737
0.713596
0.660374
0.655116
0.676425
0.691144
0.169729
0.128975
0.103171
0.0857752
0.0737475
0.0668842
0.07987
0.135492
0.241482
0.371763
0.483295
0.54289
0.364381
0.327128
0.292918
0.26552
0.249159
0.242878
0.243089
0.249155
0.169987
0.129183
0.103241
0.0856547
0.0733046
0.0649467
0.06464
0.0846231
0.108846
0.129821
0.136707
0.13766
0.13137
0.117167
0.107791
0.100311
0.0950046
0.0915851
0.0892555
0.0883213
0.170258
0.129454
0.103428
0.0857218
0.0731944
0.0643085
0.0595096
0.0635347
0.0719739
0.0793914
0.0797941
0.0770066
0.0708212
0.0652384
0.0603448
0.0569311
0.0537515
0.0511377
0.0489294
0.0471402
0.170525
0.129746
0.103669
0.0858817
0.0732433
0.0641207
0.0578408
0.0556149
0.0562516
0.0573203
0.056055
0.0536335
0.0500666
0.0469621
0.0440369
0.0416706
0.0394893
0.0376005
0.035947
0.0344986
0.170779
0.130039
0.103929
0.0860848
0.0733656
0.0641016
0.0572831
0.0528605
0.0502632
0.0484824
0.0463075
0.0439648
0.0414702
0.0390967
0.0368619
0.0349873
0.0332715
0.0317382
0.0303706
0.029144
0.17102
0.130323
0.104192
0.0863054
0.0735229
0.0641529
0.0571061
0.0519255
0.0481319
0.0451975
0.0425396
0.0400838
0.0377695
0.0356701
0.0337381
0.0320438
0.0304892
0.0290795
0.0278116
0.0266645
0.171246
0.130596
0.104451
0.0865302
0.0736961
0.0642316
0.0570715
0.051589
0.0473509
0.043959
0.0410511
0.0384683
0.036245
0.0341583
0.0322855
0.0306302
0.0291237
0.0277539
0.026517
0.0253926
0.171457
0.130856
0.104702
0.0867528
0.0738783
0.0643629
0.0570882
0.0514626
0.0470283
0.0434286
0.0403795
0.0377407
0.0354305
0.0333566
0.0315042
0.0298544
0.0283578
0.0269961
0.025765
0.0246433
0.171656
0.131103
0.104926
0.0869665
0.0740648
0.0644998
0.0571612
0.0514279
0.0468808
0.0431623
0.040021
0.0373215
0.0349712
0.0328812
0.0310232
0.0293656
0.0278679
0.0265061
0.0252739
0.0241497
0.171843
0.131337
0.105177
0.0871874
0.0742784
0.0646295
0.0572405
0.0514438
0.0468184
0.0430211
0.0398106
0.037064
0.0346781
0.0325717
0.03071
0.0290294
0.0275332
0.0261693
0.0249333
0.0238044
0.172019
0.131559
0.105396
0.0873907
0.0744456
0.064767
0.0573333
0.0514905
0.0468073
0.0429514
0.0396914
0.0369107
0.0344954
0.0323715
0.0304887
0.0288116
0.027304
0.0259326
0.0246908
0.0235567
0.172186
0.13177
0.105605
0.0875804
0.0745984
0.0648954
0.0574321
0.0515539
0.0468278
0.042926
0.0396354
0.0368224
0.0343821
0.0322408
0.0303435
0.0286527
0.027133
0.0257515
0.0245002
0.0233566
0.172341
0.131965
0.105795
0.0877477
0.0747332
0.0649956
0.0575038
0.0515933
0.0468275
0.0428902
0.0395617
0.0367133
0.0342416
0.0320697
0.030142
0.0284207
0.0268717
0.025463
0.0241856
0.0230162
0.172408
0.13201
0.105786
0.0876753
0.074589
0.0647884
0.057235
0.0512677
0.0464376
0.0424333
0.0390422
0.0361375
0.0336075
0.0313912
0.0294256
0.0276687
0.0260846
0.0246483
0.0233459
0.0221543
0.212654
0.172015
0.27773
0.666258
1.3469
1.6103
0.193895
0.139503
0.110412
0.102257
0.146383
0.270067
0.610157
0.994931
1.93592
2.13148
2.036
2.05489
2.0716
2.06899
0.169561
0.129166
0.103767
0.0873028
0.0791127
0.0972987
0.238527
0.564041
2.03046
1.67347
1.61656
1.55563
1.33953
1.4121
1.32203
0.169537
0.128912
0.103324
0.0862344
0.0749939
0.0732673
0.123778
0.249208
0.642239
1.38615
1.6966
0.918806
0.801649
0.715034
0.661895
0.656248
0.677341
0.691751
0.169733
0.128971
0.103168
0.0857722
0.0737453
0.0669049
0.0801828
0.136167
0.244076
0.373193
0.480371
0.528267
0.361137
0.327419
0.293561
0.266629
0.249711
0.243146
0.243296
0.249353
0.169991
0.12918
0.103239
0.0856519
0.0733023
0.0649491
0.0647191
0.0849998
0.109481
0.130458
0.136093
0.136474
0.130214
0.117979
0.108126
0.100529
0.0950758
0.0916152
0.0892953
0.0883711
0.170262
0.129452
0.103426
0.0857194
0.0731925
0.0643118
0.0595192
0.0636179
0.0721197
0.0794588
0.0796108
0.0769521
0.0708792
0.0654054
0.0604706
0.0568957
0.0537512
0.0511524
0.0489473
0.0471566
0.170529
0.129744
0.103667
0.0858797
0.0732419
0.0641222
0.0578361
0.0556243
0.0562756
0.0573104
0.0559885
0.0536063
0.0500828
0.0469919
0.0440682
0.0416611
0.039495
0.0376081
0.0359531
0.0345037
0.170783
0.130037
0.103927
0.0860832
0.0733646
0.0641023
0.0572788
0.0528628
0.0502684
0.0484763
0.0462874
0.0439633
0.0414815
0.0390751
0.0368794
0.0349857
0.0332746
0.0317411
0.0303727
0.0291457
0.171024
0.130321
0.104191
0.0863041
0.0735222
0.0641537
0.0571026
0.051926
0.0481331
0.0451955
0.0425336
0.0400856
0.0377857
0.0356652
0.0337431
0.0320398
0.0304893
0.0290807
0.0278126
0.0266654
0.17125
0.130594
0.10445
0.0865292
0.0736955
0.0642344
0.0570671
0.0515884
0.0473518
0.0439585
0.041049
0.0384672
0.0362411
0.0341571
0.0322897
0.0306282
0.0291236
0.0277543
0.0265174
0.025393
0.171461
0.130854
0.104701
0.0867521
0.0738779
0.0643619
0.057089
0.0514609
0.0470288
0.0434283
0.0403785
0.03774
0.0354311
0.0333554
0.0315057
0.0298525
0.0283575
0.0269964
0.0257653
0.0246435
0.17166
0.131102
0.104929
0.0869653
0.0740653
0.0644969
0.0571608
0.0514281
0.0468812
0.043162
0.0400204
0.0373212
0.0349712
0.0328803
0.0310238
0.0293637
0.0278674
0.0265062
0.025274
0.0241498
0.171847
0.131336
0.105175
0.0871874
0.0742771
0.0646301
0.0572404
0.0514438
0.0468184
0.0430209
0.0398103
0.0370639
0.0346779
0.0325709
0.0307082
0.0290306
0.0275321
0.026169
0.0249333
0.0238045
0.172023
0.131558
0.105395
0.0873908
0.0744462
0.0647655
0.0573334
0.0514907
0.0468072
0.0429513
0.0396913
0.0369106
0.0344951
0.0323709
0.0304884
0.0288108
0.0273032
0.0259325
0.0246909
0.0235568
0.172189
0.131769
0.105603
0.0875804
0.0745991
0.0648942
0.0574323
0.0515542
0.0468278
0.0429262
0.0396351
0.0368225
0.034382
0.0322405
0.0303433
0.028652
0.0271323
0.0257515
0.0245003
0.0233567
0.172345
0.131965
0.105793
0.0877478
0.0747332
0.0649954
0.0575038
0.0515936
0.0468277
0.0428899
0.039562
0.0367136
0.0342415
0.0320695
0.0301422
0.0284203
0.0268712
0.0254631
0.0241857
0.0230162
0.172411
0.13201
0.105785
0.0876754
0.0745891
0.0647884
0.057235
0.0512679
0.0464374
0.0424333
0.0390424
0.0361372
0.0336072
0.0313915
0.0294254
0.0276682
0.0260846
0.0246483
0.0233459
0.0221543
0.212678
0.161403
0.25366
0.626905
1.37738
1.63638
0.1939
0.13948
0.110299
0.101922
0.145445
0.265674
0.594342
0.975264
1.92798
2.1319
2.04014
2.05649
2.07071
2.06783
0.169548
0.129156
0.103769
0.0873021
0.0791078
0.0967211
0.233572
0.539461
1.97969
1.64434
1.61785
1.55999
1.34098
1.41314
1.32219
0.169539
0.128908
0.103322
0.0862316
0.0749915
0.0733392
0.123702
0.245508
0.606667
1.39112
1.68397
0.913467
0.799001
0.715498
0.662916
0.657066
0.678004
0.692208
0.169736
0.128968
0.103166
0.0857696
0.0737431
0.0669209
0.0803704
0.136281
0.243617
0.373254
0.477176
0.520748
0.358244
0.326552
0.293744
0.267481
0.250226
0.243389
0.243461
0.249512
0.169993
0.129178
0.103236
0.0856496
0.0733004
0.0649511
0.0647817
0.0852535
0.110012
0.131095
0.135757
0.135491
0.129093
0.118316
0.1084
0.100742
0.0951601
0.0916432
0.0893249
0.0884121
0.170265
0.12945
0.103424
0.0857173
0.0731909
0.0643143
0.0595282
0.0636877
0.0722595
0.0795522
0.0794748
0.0768763
0.0708858
0.0655174
0.0605771
0.0568849
0.0537476
0.0511614
0.0489617
0.0471714
0.170532
0.129742
0.103665
0.085878
0.0732407
0.0641233
0.0578324
0.0556322
0.056299
0.0573072
0.055932
0.0535751
0.0500844
0.047009
0.0440931
0.0416573
0.0394986
0.0376144
0.0359587
0.0345086
0.170786
0.130035
0.103926
0.0860818
0.0733636
0.0641027
0.0572751
0.0528637
0.0502727
0.0484713
0.0462694
0.0439577
0.0414882
0.0390588
0.036891
0.0349862
0.0332771
0.0317438
0.0303747
0.0291474
0.171027
0.13032
0.10419
0.086303
0.0735214
0.0641542
0.0570996
0.0519257
0.0481341
0.0451939
0.0425283
0.0400862
0.0377989
0.0356634
0.0337484
0.0320374
0.030489
0.0290815
0.0278136
0.0266662
0.171253
0.130594
0.104449
0.0865284
0.0736949
0.0642364
0.0570638
0.0515873
0.0473525
0.0439582
0.0410472
0.0384659
0.036238
0.0341554
0.0322945
0.0306275
0.0291234
0.0277547
0.0265178
0.0253933
0.171464
0.130854
0.1047
0.0867514
0.0738775
0.0643612
0.0570894
0.0514596
0.0470291
0.0434281
0.0403777
0.0377394
0.0354315
0.0333544
0.0315083
0.0298517
0.028357
0.0269966
0.0257655
0.0246437
0.171663
0.131101
0.104931
0.0869647
0.0740656
0.0644947
0.0571601
0.0514281
0.0468816
0.0431619
0.04002
0.0373209
0.0349712
0.0328796
0.0310256
0.0293631
0.0278669
0.0265062
0.0252742
0.02415
0.17185
0.131336
0.105174
0.0871871
0.0742761
0.0646302
0.0572402
0.0514438
0.0468185
0.0430207
0.03981
0.0370637
0.0346778
0.0325704
0.0307079
0.0290324
0.0275317
0.0261686
0.0249333
0.0238046
0.172026
0.131558
0.105394
0.0873907
0.0744467
0.0647644
0.0573334
0.0514909
0.0468072
0.0429513
0.0396911
0.0369105
0.034495
0.0323706
0.030489
0.028811
0.0273026
0.0259324
0.0246911
0.0235569
0.172192
0.131769
0.105603
0.0875804
0.0745996
0.0648933
0.0574322
0.0515544
0.0468279
0.0429264
0.0396348
0.0368224
0.0343819
0.0322404
0.0303438
0.0286522
0.0271319
0.0257514
0.0245004
0.0233568
0.172348
0.131965
0.105792
0.0877476
0.0747332
0.0649952
0.0575037
0.0515937
0.0468279
0.0428896
0.0395622
0.0367138
0.0342413
0.0320694
0.0301426
0.0284204
0.0268708
0.025463
0.0241858
0.0230163
0.172414
0.13201
0.105784
0.0876753
0.074589
0.0647883
0.057235
0.0512681
0.0464373
0.0424333
0.0390425
0.0361369
0.0336069
0.0313917
0.0294254
0.027668
0.0260845
0.0246484
0.0233459
0.0221543
0.212724
0.155005
0.235629
0.596764
1.41391
1.67883
0.193903
0.139461
0.110188
0.101443
0.144388
0.261368
0.583188
0.98993
1.91773
2.13098
2.04367
2.05875
2.07037
2.06658
0.169536
0.129148
0.103769
0.0872995
0.0790874
0.0961365
0.228763
0.525464
2.03121
1.61501
1.61454
1.56306
1.34224
1.41405
1.32229
0.169539
0.128906
0.10332
0.086229
0.0749876
0.0733539
0.12319
0.240378
0.582868
1.38194
1.73853
0.907122
0.795366
0.71515
0.663521
0.657611
0.67847
0.692634
0.169738
0.128967
0.103164
0.0857675
0.0737411
0.0669312
0.0804483
0.135894
0.241395
0.371775
0.474289
0.515137
0.355759
0.325129
0.293534
0.268075
0.250675
0.243593
0.243579
0.249636
0.169995
0.129177
0.103235
0.0856479
0.073299
0.0649525
0.0648265
0.0853839
0.110399
0.131693
0.135642
0.134699
0.128073
0.118357
0.1086
0.100936
0.095249
0.0916669
0.0893415
0.0884401
0.170266
0.129449
0.103423
0.085716
0.0731899
0.0643163
0.0595361
0.0637403
0.0723835
0.0796633
0.0793813
0.0767906
0.0708643
0.065597
0.0606696
0.0568889
0.0537426
0.051164
0.0489705
0.0471826
0.170533
0.129741
0.103664
0.0858768
0.0732399
0.0641244
0.0578298
0.0556378
0.0563192
0.0573079
0.0558826
0.053542
0.0500784
0.04702
0.044113
0.0416561
0.0395002
0.0376186
0.035963
0.0345125
0.170788
0.130035
0.103925
0.0860809
0.073363
0.0641033
0.0572723
0.0528634
0.0502754
0.0484666
0.0462525
0.0439489
0.0414915
0.0390466
0.036898
0.0349871
0.0332787
0.0317459
0.0303764
0.0291488
0.171029
0.13032
0.104189
0.0863022
0.073521
0.0641547
0.0570973
0.0519249
0.0481344
0.0451923
0.0425233
0.0400855
0.0378091
0.0356637
0.0337527
0.0320362
0.0304884
0.0290821
0.0278143
0.0266668
0.171255
0.130594
0.104449
0.0865277
0.0736945
0.0642381
0.0570614
0.051586
0.0473527
0.0439579
0.0410457
0.0384647
0.0362355
0.0341536
0.0322981
0.0306275
0.0291231
0.0277549
0.0265181
0.0253936
0.171466
0.130854
0.1047
0.086751
0.0738772
0.0643606
0.0570896
0.0514586
0.0470292
0.043428
0.0403771
0.0377388
0.0354318
0.0333537
0.0315103
0.0298513
0.0283566
0.0269966
0.0257657
0.0246439
0.171665
0.131101
0.104933
0.0869646
0.0740658
0.064493
0.0571593
0.0514279
0.0468818
0.0431618
0.0400196
0.0373206
0.0349711
0.0328791
0.0310271
0.029363
0.0278665
0.0265062
0.0252743
0.0241501
0.171852
0.131336
0.105173
0.0871869
0.0742753
0.0646302
0.0572402
0.0514438
0.0468185
0.0430206
0.0398098
0.0370636
0.0346778
0.0325699
0.0307077
0.0290338
0.0275316
0.0261684
0.0249333
0.0238046
0.172028
0.131558
0.105393
0.0873905
0.0744471
0.0647635
0.0573332
0.0514911
0.0468072
0.0429512
0.039691
0.0369104
0.0344949
0.0323703
0.0304895
0.0288113
0.0273022
0.0259322
0.0246911
0.023557
0.172194
0.131769
0.105602
0.0875802
0.0746
0.0648926
0.0574321
0.0515545
0.0468279
0.0429266
0.0396347
0.0368223
0.0343818
0.0322402
0.0303442
0.0286525
0.0271315
0.0257513
0.0245004
0.0233568
0.17235
0.131965
0.105792
0.0877475
0.0747332
0.0649951
0.0575036
0.0515938
0.046828
0.0428895
0.0395623
0.036714
0.0342413
0.0320693
0.030143
0.0284205
0.0268706
0.025463
0.0241858
0.0230163
0.172416
0.13201
0.105783
0.0876751
0.074589
0.0647883
0.057235
0.0512682
0.0464372
0.0424333
0.0390426
0.0361367
0.0336067
0.0313919
0.0294254
0.0276678
0.0260845
0.0246484
0.023346
0.0221543
0.212762
0.151708
0.221849
0.575719
1.44665
1.72927
0.193906
0.139446
0.110086
0.100881
0.143292
0.257473
0.576615
1.03023
1.90698
2.12844
2.04629
2.06149
2.07065
2.06539
0.169528
0.129141
0.103767
0.0872952
0.0790585
0.0955709
0.224482
0.518747
2.10683
1.59015
1.60766
1.56481
1.3434
1.41496
1.32222
0.16954
0.128904
0.103318
0.0862269
0.0749831
0.0733321
0.122432
0.23552
0.568324
1.37783
1.81965
0.902132
0.791356
0.714164
0.663783
0.65793
0.678789
0.692847
0.169739
0.128966
0.103162
0.0857659
0.0737393
0.0669366
0.0804393
0.135132
0.238215
0.369151
0.472283
0.510542
0.353679
0.323461
0.292992
0.268424
0.251054
0.243771
0.243666
0.24971
0.169996
0.129176
0.103234
0.0856468
0.073298
0.0649537
0.0648557
0.0854032
0.110611
0.132204
0.135697
0.134096
0.127166
0.118206
0.108712
0.101101
0.0953407
0.0916907
0.0893492
0.0884559
0.170268
0.129448
0.103422
0.085715
0.0731892
0.064318
0.059543
0.0637761
0.0724844
0.0797836
0.0793295
0.0767071
0.0708221
0.0656477
0.0607471
0.0569028
0.0537384
0.0511622
0.0489745
0.04719
0.170535
0.129741
0.103664
0.085876
0.0732394
0.0641255
0.0578281
0.055642
0.0563362
0.0573128
0.0558412
0.0535081
0.0500663
0.0470251
0.0441282
0.0416566
0.0395006
0.037621
0.0359658
0.0345152
0.17079
0.130035
0.103925
0.0860802
0.0733626
0.0641039
0.0572702
0.0528625
0.0502766
0.0484619
0.0462368
0.0439376
0.0414914
0.0390369
0.0369017
0.0349879
0.0332798
0.0317475
0.0303777
0.0291498
0.17103
0.13032
0.104189
0.0863016
0.0735207
0.0641552
0.0570957
0.051924
0.0481341
0.0451904
0.0425185
0.0400835
0.0378167
0.0356651
0.0337564
0.0320356
0.0304876
0.0290822
0.0278148
0.0266674
0.171256
0.130594
0.104449
0.0865273
0.0736943
0.0642394
0.0570599
0.0515848
0.0473525
0.0439575
0.0410443
0.0384634
0.0362335
0.0341517
0.0323007
0.0306279
0.0291229
0.027755
0.0265183
0.0253938
0.171468
0.130854
0.1047
0.0867506
0.073877
0.0643603
0.0570897
0.0514578
0.0470291
0.0434278
0.0403766
0.0377381
0.0354321
0.0333531
0.0315119
0.0298513
0.0283562
0.0269965
0.0257659
0.024644
0.171667
0.131102
0.104935
0.0869648
0.0740661
0.0644918
0.0571585
0.0514277
0.046882
0.0431618
0.0400194
0.0373204
0.0349712
0.0328786
0.0310283
0.029363
0.0278662
0.0265061
0.0252743
0.0241502
0.171854
0.131336
0.105173
0.0871867
0.0742747
0.0646301
0.0572401
0.0514437
0.0468185
0.0430205
0.0398096
0.0370634
0.0346777
0.0325696
0.0307075
0.0290348
0.0275317
0.0261681
0.0249331
0.0238046
0.17203
0.131559
0.105393
0.0873903
0.0744474
0.0647629
0.057333
0.0514911
0.0468072
0.0429512
0.0396909
0.0369103
0.0344948
0.03237
0.03049
0.0288116
0.027302
0.025932
0.0246911
0.023557
0.172196
0.13177
0.105601
0.08758
0.0746003
0.0648921
0.0574319
0.0515546
0.0468279
0.0429267
0.0396346
0.0368223
0.0343818
0.0322401
0.0303446
0.0286527
0.0271313
0.0257511
0.0245005
0.0233569
0.172351
0.131966
0.105791
0.0877473
0.0747332
0.064995
0.0575036
0.0515939
0.0468282
0.0428894
0.0395623
0.0367143
0.0342413
0.0320692
0.0301432
0.0284207
0.0268704
0.0254629
0.0241859
0.0230164
0.172418
0.132011
0.105782
0.0876749
0.074589
0.0647883
0.057235
0.0512683
0.0464371
0.0424333
0.0390426
0.0361366
0.0336064
0.0313919
0.0294254
0.0276677
0.0260844
0.0246484
0.023346
0.0221543
0.212787
0.150396
0.211757
0.562715
1.47482
1.77975
0.193907
0.139437
0.109995
0.100286
0.142204
0.254137
0.574215
1.08909
1.89817
2.12415
2.04773
2.06446
2.07153
2.0644
0.169521
0.129135
0.103765
0.0872889
0.0790238
0.0950365
0.220959
0.517644
2.17754
1.57239
1.59857
1.56512
1.34443
1.41588
1.32215
0.16954
0.128903
0.103317
0.0862251
0.0749783
0.0732856
0.121559
0.231674
0.559364
1.39022
1.88855
0.899628
0.787561
0.712742
0.663769
0.658075
0.679007
0.693013
0.169739
0.128966
0.103162
0.0857648
0.0737378
0.0669379
0.080364
0.13415
0.234513
0.36593
0.471065
0.506868
0.352015
0.321768
0.29219
0.268546
0.251359
0.243932
0.243736
0.249763
0.169997
0.129176
0.103233
0.085646
0.0732973
0.0649545
0.0648715
0.0853286
0.110635
0.132575
0.13585
0.13367
0.126387
0.117933
0.108736
0.10123
0.0954319
0.0917177
0.0893524
0.0884635
0.170268
0.129448
0.103422
0.0857145
0.0731889
0.0643194
0.0595489
0.0637956
0.0725569
0.0799018
0.0793151
0.0766353
0.0707686
0.0656739
0.0608098
0.0569227
0.0537369
0.0511585
0.0489751
0.0471944
0.170535
0.129741
0.103664
0.0858756
0.0732392
0.0641265
0.0578274
0.0556451
0.0563502
0.0573211
0.0558085
0.053475
0.0500499
0.0470254
0.0441394
0.0416579
0.0395003
0.0376224
0.0359677
0.034517
0.170791
0.130035
0.103925
0.0860799
0.0733624
0.0641045
0.0572687
0.0528615
0.0502768
0.0484575
0.0462224
0.0439249
0.0414885
0.0390285
0.0369029
0.0349884
0.0332803
0.0317486
0.0303786
0.0291505
0.171031
0.13032
0.104189
0.0863014
0.0735205
0.0641557
0.0570945
0.0519229
0.0481333
0.0451882
0.0425138
0.0400806
0.0378219
0.0356668
0.0337595
0.0320355
0.0304869
0.0290821
0.0278151
0.0266677
0.171257
0.130594
0.104449
0.0865271
0.0736942
0.0642406
0.0570589
0.0515836
0.047352
0.0439569
0.0410429
0.038462
0.0362316
0.0341499
0.0323024
0.0306284
0.0291228
0.027755
0.0265184
0.025394
0.171469
0.130855
0.1047
0.0867505
0.0738769
0.0643601
0.0570898
0.0514572
0.0470288
0.0434276
0.0403761
0.0377375
0.0354323
0.0333527
0.0315131
0.0298515
0.0283558
0.0269964
0.0257659
0.0246441
0.171668
0.131102
0.104936
0.0869652
0.0740665
0.0644909
0.0571578
0.0514273
0.046882
0.0431617
0.0400191
0.0373201
0.0349711
0.0328783
0.0310292
0.0293631
0.0278659
0.0265059
0.0252743
0.0241502
0.171855
0.131336
0.105172
0.0871865
0.0742742
0.06463
0.05724
0.0514437
0.0468185
0.0430204
0.0398094
0.0370633
0.0346777
0.0325693
0.0307074
0.0290356
0.0275319
0.026168
0.024933
0.0238046
0.172031
0.131559
0.105392
0.0873902
0.0744477
0.0647625
0.0573328
0.0514911
0.0468072
0.0429512
0.0396908
0.0369102
0.0344947
0.0323698
0.0304903
0.0288119
0.0273018
0.0259319
0.0246911
0.0235571
0.172197
0.13177
0.105601
0.0875799
0.0746006
0.0648918
0.0574317
0.0515546
0.046828
0.0429268
0.0396345
0.0368223
0.0343817
0.03224
0.0303449
0.028653
0.0271311
0.025751
0.0245005
0.0233569
0.172353
0.131966
0.105791
0.0877471
0.0747331
0.0649949
0.0575035
0.051594
0.0468283
0.0428893
0.0395624
0.0367145
0.0342414
0.0320691
0.0301434
0.0284209
0.0268702
0.0254627
0.0241859
0.0230164
0.172419
0.132011
0.105782
0.0876747
0.0745889
0.0647882
0.057235
0.0512684
0.0464371
0.0424333
0.0390427
0.0361364
0.0336062
0.031392
0.0294255
0.0276676
0.0260843
0.0246484
0.023346
0.0221543
0.212802
0.150181
0.205453
0.555673
1.49944
1.82449
0.193908
0.139432
0.109917
0.0996969
0.141166
0.251411
0.575206
1.15528
1.89327
2.11841
2.04779
2.06738
2.07295
2.0637
0.169517
0.12913
0.103762
0.0872807
0.0789843
0.0945402
0.218294
0.521354
2.24213
1.56264
1.58871
1.56399
1.34526
1.41681
1.32214
0.16954
0.128902
0.103316
0.0862234
0.0749733
0.0732234
0.120674
0.229053
0.555575
1.40711
1.937
0.899844
0.784447
0.711074
0.663532
0.658069
0.679139
0.693144
0.16974
0.128965
0.103161
0.0857639
0.0737364
0.0669354
0.0802394
0.133093
0.230608
0.36241
0.470231
0.504267
0.350715
0.320196
0.291222
0.268465
0.251586
0.244076
0.243794
0.2498
0.169998
0.129176
0.103233
0.0856455
0.0732968
0.064955
0.0648748
0.0851793
0.110481
0.132768
0.136033
0.133394
0.125736
0.117594
0.108684
0.101318
0.095518
0.0917493
0.089355
0.0884661
0.170269
0.129449
0.103422
0.0857142
0.0731887
0.0643206
0.0595537
0.063799
0.072597
0.0800025
0.079327
0.07658
0.0707116
0.0656809
0.0608582
0.0569454
0.053739
0.0511546
0.0489733
0.0471963
0.170536
0.129742
0.103663
0.0858755
0.0732392
0.0641274
0.0578272
0.0556472
0.056361
0.0573312
0.0557843
0.0534442
0.050031
0.047022
0.044147
0.0416594
0.0394998
0.0376228
0.0359687
0.0345182
0.170791
0.130035
0.103925
0.0860797
0.0733624
0.0641052
0.0572678
0.0528605
0.0502766
0.0484534
0.0462094
0.0439117
0.0414834
0.0390209
0.0369026
0.0349884
0.0332805
0.0317494
0.0303793
0.029151
0.171032
0.130321
0.104189
0.0863013
0.0735205
0.0641563
0.0570938
0.051922
0.0481323
0.0451859
0.0425092
0.0400772
0.0378253
0.0356685
0.0337622
0.0320358
0.0304863
0.0290818
0.0278152
0.0266679
0.171258
0.130594
0.104449
0.086527
0.0736941
0.0642415
0.0570583
0.0515826
0.0473514
0.0439561
0.0410415
0.0384605
0.0362298
0.0341481
0.0323034
0.0306289
0.0291227
0.0277549
0.0265185
0.0253941
0.17147
0.130855
0.1047
0.0867504
0.0738769
0.0643601
0.0570899
0.0514567
0.0470285
0.0434273
0.0403756
0.0377368
0.0354323
0.0333523
0.031514
0.0298518
0.0283556
0.0269963
0.025766
0.0246442
0.171669
0.131102
0.104937
0.0869658
0.0740669
0.0644904
0.0571572
0.051427
0.046882
0.0431616
0.0400189
0.0373198
0.0349711
0.0328779
0.0310298
0.0293634
0.0278657
0.0265058
0.0252743
0.0241503
0.171856
0.131337
0.105172
0.0871863
0.0742739
0.0646299
0.05724
0.0514437
0.0468185
0.0430203
0.0398093
0.0370631
0.0346776
0.032569
0.0307072
0.0290362
0.0275321
0.0261679
0.0249329
0.0238046
0.172032
0.131559
0.105392
0.0873901
0.0744479
0.0647622
0.0573326
0.0514911
0.0468072
0.0429511
0.0396908
0.0369101
0.0344947
0.0323696
0.0304906
0.0288122
0.0273016
0.0259317
0.024691
0.0235571
0.172198
0.131771
0.105601
0.0875798
0.0746008
0.0648916
0.0574315
0.0515546
0.046828
0.0429269
0.0396345
0.0368222
0.0343816
0.0322399
0.0303451
0.0286532
0.027131
0.0257508
0.0245004
0.0233569
0.172353
0.131967
0.105791
0.087747
0.0747331
0.0649948
0.0575035
0.051594
0.0468283
0.0428893
0.0395624
0.0367146
0.0342414
0.032069
0.0301436
0.0284211
0.0268701
0.0254626
0.0241859
0.0230165
0.17242
0.132012
0.105782
0.0876746
0.0745889
0.0647882
0.057235
0.0512684
0.0464371
0.0424332
0.0390427
0.0361363
0.033606
0.031392
0.0294255
0.0276675
0.0260843
0.0246484
0.023346
0.0221543
0.212812
0.150461
0.202739
0.552668
1.5211
1.86087
0.193909
0.13943
0.109851
0.0991391
0.140212
0.24929
0.578644
1.21917
1.89295
2.11196
2.04641
2.06996
2.07477
2.06334
0.169514
0.129127
0.103759
0.0872705
0.0789411
0.0940864
0.216491
0.529111
2.29947
1.56061
1.57931
1.56162
1.3458
1.41769
1.32219
0.16954
0.128902
0.103315
0.0862219
0.0749678
0.0731514
0.119846
0.227597
0.556496
1.42007
1.97194
0.902495
0.782313
0.709359
0.663135
0.657952
0.679197
0.693247
0.16974
0.128965
0.103161
0.0857632
0.0737352
0.0669296
0.080082
0.132078
0.226876
0.358545
0.46946
0.502839
0.349738
0.318837
0.290164
0.268206
0.251726
0.244203
0.243851
0.249832
0.169998
0.129176
0.103233
0.0856452
0.0732965
0.0649551
0.0648672
0.0849787
0.110172
0.132763
0.136188
0.133231
0.125209
0.117229
0.108568
0.101363
0.0955944
0.0917848
0.0893593
0.0884662
0.170269
0.129449
0.103422
0.0857141
0.0731887
0.0643216
0.0595572
0.0637874
0.0726031
0.0800751
0.0793535
0.0765417
0.0706564
0.0656735
0.060893
0.0569685
0.0537443
0.0511517
0.0489702
0.0471965
0.170536
0.129742
0.103664
0.0858755
0.0732393
0.0641283
0.0578274
0.055648
0.0563684
0.0573408
0.0557666
0.0534163
0.0500107
0.0470153
0.0441515
0.0416609
0.0394992
0.0376226
0.0359691
0.0345187
0.170792
0.130035
0.103925
0.0860798
0.0733625
0.0641058
0.0572672
0.0528597
0.0502761
0.0484496
0.0461979
0.0438987
0.0414767
0.0390135
0.036901
0.0349881
0.0332804
0.0317498
0.0303798
0.0291514
0.171033
0.130321
0.104189
0.0863013
0.0735206
0.0641568
0.0570933
0.0519212
0.0481312
0.0451835
0.0425049
0.0400734
0.0378272
0.0356701
0.0337646
0.0320364
0.0304858
0.0290815
0.0278151
0.0266681
0.171258
0.130595
0.104449
0.086527
0.0736942
0.0642424
0.0570581
0.0515819
0.0473507
0.0439552
0.0410402
0.038459
0.0362281
0.0341464
0.0323039
0.0306294
0.0291227
0.0277548
0.0265185
0.0253941
0.171471
0.130855
0.1047
0.0867504
0.0738769
0.0643601
0.05709
0.0514564
0.0470282
0.0434269
0.0403751
0.0377361
0.0354321
0.033352
0.0315147
0.0298521
0.0283554
0.0269961
0.0257659
0.0246442
0.171669
0.131103
0.104938
0.0869664
0.0740673
0.06449
0.0571567
0.0514267
0.0468819
0.0431615
0.0400186
0.0373195
0.034971
0.0328776
0.0310303
0.0293636
0.0278656
0.0265056
0.0252743
0.0241503
0.171856
0.131337
0.105172
0.0871863
0.0742737
0.0646298
0.05724
0.0514437
0.0468185
0.0430202
0.0398091
0.0370629
0.0346775
0.0325688
0.0307071
0.0290367
0.0275323
0.0261679
0.0249328
0.0238045
0.172032
0.13156
0.105392
0.08739
0.074448
0.0647621
0.0573324
0.0514911
0.0468072
0.0429511
0.0396907
0.03691
0.0344946
0.0323694
0.0304907
0.0288125
0.0273016
0.0259315
0.0246909
0.0235571
0.172199
0.131771
0.105601
0.0875797
0.074601
0.0648915
0.0574314
0.0515546
0.046828
0.042927
0.0396344
0.0368221
0.0343816
0.0322398
0.0303452
0.0286535
0.027131
0.0257507
0.0245004
0.023357
0.172354
0.131967
0.105791
0.0877469
0.0747331
0.0649948
0.0575034
0.051594
0.0468284
0.0428892
0.0395624
0.0367147
0.0342415
0.0320689
0.0301437
0.0284212
0.0268701
0.0254625
0.0241858
0.0230165
0.17242
0.132012
0.105782
0.0876745
0.0745888
0.0647882
0.057235
0.0512685
0.046437
0.0424332
0.0390427
0.0361363
0.0336058
0.0313919
0.0294256
0.0276675
0.0260842
0.0246483
0.023346
0.0221543
0.212817
0.150891
0.2029
0.552416
1.54001
1.88878
0.193909
0.13943
0.109798
0.0986267
0.139372
0.247732
0.583664
1.27508
1.89664
2.10576
2.04366
2.07192
2.07684
2.06336
0.169511
0.129124
0.103756
0.087259
0.078895
0.0936786
0.215487
0.53997
2.34675
1.56521
1.57131
1.55834
1.34603
1.41846
1.32245
0.16954
0.128902
0.103315
0.0862204
0.0749618
0.0730741
0.119125
0.227172
0.561054
1.43192
1.99825
0.907064
0.781304
0.707751
0.662621
0.657741
0.679184
0.69342
0.16974
0.128965
0.10316
0.0857626
0.0737339
0.066921
0.0799071
0.131187
0.22373
0.354224
0.468544
0.502431
0.349065
0.317749
0.289116
0.267807
0.251777
0.244304
0.243899
0.249867
0.169998
0.129177
0.103233
0.085645
0.0732961
0.0649547
0.0648501
0.084751
0.109748
0.132561
0.136268
0.133142
0.12479
0.116867
0.108404
0.101365
0.0956559
0.0918228
0.0893664
0.088465
0.17027
0.129449
0.103422