/*--------------------------------*- C++ -*----------------------------------*\
  =========                 |
  \\      /  F ield         | OpenFOAM: The Open Source CFD Toolbox
   \\    /   O peration     | Website:  https://openfoam.org
    \\  /    A nd           | Version:  10
     \\/     M anipulation  |
\*---------------------------------------------------------------------------*/
FoamFile
{
    format      ascii;
    class       volScalarField;
    location    "2000";
    object      nut;
}
// * * * * * * * * * * * * * * * * * * * * * * * * * * * * * * * * * * * * * //

dimensions      [0 2 -1 0 0 0 0];

internalField   nonuniform List<scalar> 
52338
(
0.130458
0.0836802
0.119115
0.217936
0.24809
0.246963
0.133385
0.131648
0.131203
0.136509
0.179621
0.271241
0.397745
0.232649
0.380444
0.558039
0.761972
1.07541
1.0286
1.22873
0.132301
0.130769
0.130123
0.130702
0.135348
0.172099
0.316976
0.394538
0.181061
0.753593
0.84882
0.964851
1.05225
1.23629
1.25087
0.13209
0.130256
0.129176
0.128906
0.130155
0.140744
0.220648
0.344786
0.334485
0.215684
0.4176
0.578461
0.659277
0.699438
0.747242
0.81959
0.883887
0.993255
0.131953
0.12991
0.128528
0.127791
0.127936
0.131397
0.164414
0.242773
0.311393
0.324303
0.358276
0.406203
0.427463
0.423633
0.423813
0.431937
0.446618
0.468699
0.497222
0.533202
0.131874
0.129701
0.128125
0.127098
0.126715
0.127768
0.139429
0.181265
0.219685
0.246957
0.263171
0.276148
0.282308
0.273665
0.270732
0.270994
0.273356
0.277882
0.283887
0.292219
0.131827
0.129571
0.127871
0.126659
0.125965
0.126079
0.129843
0.147216
0.170388
0.190685
0.201097
0.205213
0.203477
0.201317
0.198308
0.197245
0.196791
0.197204
0.198087
0.199556
0.131798
0.129488
0.127706
0.12637
0.125476
0.125141
0.126189
0.132248
0.142396
0.152704
0.158382
0.160592
0.160054
0.159818
0.158506
0.158019
0.1579
0.158168
0.158647
0.159304
0.13178
0.129433
0.127593
0.126172
0.125144
0.124553
0.124643
0.126508
0.130133
0.134254
0.136826
0.138057
0.138264
0.138449
0.138133
0.138194
0.13842
0.138795
0.139275
0.139822
0.131769
0.129396
0.127515
0.126032
0.124909
0.124156
0.123838
0.124258
0.12537
0.126782
0.127794
0.128436
0.12865
0.128811
0.128895
0.129105
0.129369
0.129694
0.130089
0.130519
0.131762
0.129371
0.12746
0.125932
0.124739
0.123873
0.12334
0.123215
0.123421
0.123793
0.124101
0.124304
0.124462
0.124534
0.124599
0.12475
0.124948
0.12518
0.125467
0.125773
0.131759
0.129355
0.12742
0.125858
0.124614
0.123666
0.122999
0.12262
0.122452
0.122399
0.122372
0.122322
0.122312
0.122304
0.122311
0.122375
0.122479
0.122613
0.122796
0.122993
0.131757
0.129344
0.127391
0.125804
0.124522
0.123514
0.122754
0.122226
0.121864
0.121598
0.121382
0.121187
0.121057
0.120952
0.120883
0.120863
0.120885
0.120937
0.121035
0.121144
0.131758
0.129337
0.127373
0.125764
0.124454
0.123397
0.122571
0.121945
0.121463
0.121071
0.120726
0.12043
0.120205
0.120024
0.119898
0.119804
0.11976
0.119743
0.11977
0.119809
0.131759
0.129333
0.127359
0.125734
0.124399
0.123309
0.122433
0.121741
0.121176
0.120696
0.120263
0.119894
0.119597
0.119354
0.119173
0.119024
0.118922
0.118848
0.118818
0.118799
0.131761
0.129332
0.127349
0.125711
0.124356
0.123239
0.122326
0.121584
0.120963
0.120418
0.119932
0.119504
0.119149
0.118852
0.118614
0.11841
0.11825
0.118117
0.118024
0.117941
0.131762
0.129329
0.127336
0.125681
0.124302
0.123154
0.122202
0.121408
0.120729
0.120121
0.119564
0.119062
0.118629
0.118241
0.117903
0.117591
0.117317
0.117063
0.116841
0.116625
0.131727
0.129244
0.127186
0.125452
0.123979
0.122722
0.121645
0.120714
0.119877
0.1191
0.118359
0.117668
0.117029
0.116444
0.115909
0.115405
0.114932
0.114477
0.114053
0.113634
0.131729
0.0896573
0.112494
0.205758
0.254341
0.292296
0.133381
0.131684
0.131255
0.135593
0.174598
0.2609
0.388984
0.265742
0.380904
0.558822
0.761601
1.07498
1.02816
1.22935
0.1323
0.130768
0.130119
0.13069
0.135335
0.170508
0.310483
0.373516
0.239577
0.753014
0.856028
0.970007
1.05227
1.23527
1.25389
0.132089
0.130252
0.129172
0.128899
0.130138
0.14066
0.21919
0.324381
0.332625
0.235832
0.382247
0.590521
0.65515
0.700682
0.748708
0.820571
0.883213
0.99374
0.131953
0.129908
0.128525
0.127787
0.127928
0.131312
0.163753
0.243134
0.308839
0.326096
0.35448
0.400348
0.406472
0.420105
0.425434
0.433055
0.447008
0.468849
0.49736
0.533374
0.131874
0.129699
0.128123
0.127096
0.126712
0.127734
0.139103
0.181345
0.220458
0.247312
0.262124
0.273543
0.278296
0.273027
0.271377
0.271267
0.273407
0.277908
0.283948
0.292299
0.131827
0.12957
0.127871
0.126658
0.125963
0.126065
0.129707
0.147051
0.170402
0.190387
0.199806
0.204151
0.201915
0.199417
0.197187
0.1971
0.196815
0.19725
0.198133
0.199595
0.131798
0.129487
0.127705
0.126369
0.125476
0.125137
0.126168
0.132217
0.142322
0.15247
0.157721
0.160092
0.159286
0.15881
0.157973
0.157979
0.157924
0.15819
0.158663
0.159318
0.13178
0.129433
0.127593
0.126171
0.125143
0.124552
0.124636
0.126497
0.130101
0.134156
0.136558
0.137848
0.1381
0.138173
0.137942
0.138187
0.138432
0.138802
0.13928
0.139827
0.131769
0.129396
0.127515
0.126032
0.124909
0.124155
0.123835
0.124255
0.125359
0.126749
0.1277
0.128275
0.128507
0.128701
0.128807
0.129095
0.129372
0.129697
0.130092
0.130521
0.131762
0.129371
0.12746
0.125932
0.124739
0.123872
0.123339
0.123214
0.123417
0.123783
0.124068
0.124268
0.124442
0.124495
0.124562
0.124747
0.124949
0.125181
0.125468
0.125774
0.131759
0.129354
0.12742
0.125858
0.124614
0.123666
0.122999
0.122619
0.12245
0.122395
0.122359
0.122307
0.122303
0.122281
0.12229
0.122373
0.12248
0.122614
0.122797
0.122994
0.131758
0.129344
0.127391
0.125804
0.124522
0.123514
0.122755
0.122225
0.121864
0.121596
0.121376
0.12118
0.121052
0.12094
0.120872
0.120863
0.120886
0.120937
0.121035
0.121145
0.131758
0.129337
0.127373
0.125764
0.124454
0.123398
0.122572
0.121945
0.121463
0.12107
0.120723
0.120426
0.120202
0.120017
0.119884
0.119795
0.119759
0.119743
0.119771
0.119809
0.131759
0.129333
0.127358
0.125734
0.124399
0.123309
0.122433
0.121741
0.121176
0.120696
0.120261
0.119892
0.119595
0.11935
0.119164
0.119019
0.118922
0.118848
0.118818
0.118799
0.131761
0.129332
0.127349
0.125711
0.124356
0.123239
0.122326
0.121584
0.120963
0.120418
0.119931
0.119503
0.119148
0.118848
0.118606
0.118404
0.11825
0.118117
0.118024
0.117941
0.131763
0.129329
0.127335
0.125681
0.124302
0.123154
0.122202
0.121408
0.120729
0.120121
0.119563
0.11906
0.118627
0.118236
0.117893
0.117584
0.117317
0.117063
0.116842
0.116625
0.131728
0.129244
0.127186
0.125452
0.123979
0.122722
0.121645
0.120714
0.119877
0.119099
0.118357
0.117667
0.117028
0.116444
0.115908
0.115404
0.114932
0.114477
0.114053
0.113634
0.132179
0.0926938
0.107847
0.202377
0.252544
0.304232
0.133382
0.131716
0.131253
0.135451
0.173903
0.258787
0.381756
0.275416
0.380812
0.559641
0.762408
1.07391
1.02737
1.22966
0.1323
0.130767
0.130119
0.130691
0.135369
0.16993
0.306116
0.347817
0.246296
0.742262
0.860332
0.974473
1.05248
1.23509
1.25174
0.132089
0.130251
0.129171
0.1289
0.130143
0.140877
0.219662
0.319589
0.310367
0.219487
0.378171
0.587409
0.651168
0.70086
0.749862
0.821482
0.882882
0.994158
0.131953
0.129907
0.128524
0.127787
0.12793
0.131346
0.164227
0.243588
0.309162
0.327645
0.355912
0.397104
0.40442
0.418978
0.426046
0.434041
0.447493
0.469061
0.497521
0.533554
0.131874
0.129699
0.128123
0.127096
0.126713
0.127739
0.13925
0.181981
0.221494
0.248277
0.261798
0.272428
0.276981
0.273883
0.271804
0.271566
0.273506
0.277953
0.284016
0.292388
0.131827
0.12957
0.12787
0.126658
0.125963
0.126067
0.129738
0.147226
0.170693
0.190526
0.199536
0.204049
0.201994
0.199749
0.197434
0.19703
0.196825
0.197293
0.198183
0.199642
0.131798
0.129487
0.127705
0.126369
0.125476
0.125138
0.126172
0.132238
0.142372
0.15245
0.157586
0.160032
0.159328
0.158887
0.158065
0.157963
0.157944
0.158212
0.158683
0.159335
0.13178
0.129433
0.127593
0.126171
0.125143
0.124553
0.124637
0.126502
0.130112
0.134141
0.136513
0.137845
0.138119
0.138134
0.137997
0.138189
0.138442
0.13881
0.139287
0.139833
0.131769
0.129396
0.127515
0.126032
0.124909
0.124155
0.123835
0.124256
0.125361
0.126744
0.127687
0.128291
0.128537
0.128693
0.128823
0.12909
0.129374
0.1297
0.130095
0.130524
0.131763
0.129371
0.12746
0.125932
0.124739
0.123873
0.123339
0.123214
0.123418
0.123781
0.124064
0.124258
0.124442
0.124496
0.124574
0.124746
0.12495
0.125182
0.125469
0.125775
0.131759
0.129354
0.12742
0.125858
0.124614
0.123667
0.122999
0.122619
0.12245
0.122395
0.122357
0.122306
0.122305
0.122281
0.122295
0.122372
0.122481
0.122614
0.122797
0.122995
0.131758
0.129344
0.127391
0.125804
0.124522
0.123514
0.122755
0.122226
0.121864
0.121596
0.121375
0.121179
0.121053
0.120939
0.120875
0.120863
0.120887
0.120937
0.121035
0.121145
0.131758
0.129337
0.127372
0.125764
0.124454
0.123398
0.122572
0.121945
0.121463
0.121069
0.120722
0.120426
0.120202
0.120017
0.119885
0.119797
0.119758
0.119743
0.119771
0.119809
0.131759
0.129333
0.127358
0.125734
0.124399
0.123309
0.122433
0.121741
0.121176
0.120696
0.120261
0.119891
0.119595
0.11935
0.119164
0.119019
0.118921
0.118848
0.118818
0.118799
0.131761
0.129332
0.127349
0.125711
0.124356
0.123239
0.122326
0.121584
0.120963
0.120418
0.11993
0.119503
0.119148
0.118848
0.118606
0.118404
0.118249
0.118117
0.118024
0.117941
0.131763
0.129329
0.127335
0.125681
0.124302
0.123154
0.122202
0.121408
0.120729
0.120121
0.119564
0.119061
0.118627
0.118236
0.117894
0.117585
0.117316
0.117063
0.116842
0.116625
0.131728
0.129244
0.127186
0.125452
0.123979
0.122722
0.121645
0.120714
0.119877
0.119099
0.118357
0.117666
0.117028
0.116444
0.115908
0.115404
0.114932
0.114477
0.114053
0.113634
0.132464
0.0962896
0.104293
0.189787
0.246968
0.305208
0.133383
0.131747
0.131262
0.135271
0.172968
0.256445
0.377881
0.289578
0.379966
0.560358
0.763451
1.07304
1.02674
1.22971
0.1323
0.130767
0.130118
0.130688
0.135366
0.169267
0.301457
0.340905
0.242299
0.727941
0.861965
0.97882
1.05293
1.23471
1.25173
0.132089
0.13025
0.129169
0.128899
0.130144
0.140982
0.219293
0.312741
0.289127
0.211701
0.384611
0.584418
0.647328
0.700214
0.750562
0.822196
0.882879
0.994481
0.131953
0.129906
0.128523
0.127787
0.127931
0.131371
0.164495
0.243222
0.307734
0.328254
0.356999
0.396111
0.402608
0.417476
0.42611
0.434806
0.44798
0.469276
0.497656
0.533698
0.131874
0.129698
0.128123
0.127096
0.126713
0.127742
0.139364
0.182382
0.222336
0.249265
0.261769
0.271541
0.275736
0.274186
0.272131
0.271854
0.273625
0.277993
0.284066
0.292462
0.131827
0.12957
0.12787
0.126658
0.125963
0.126068
0.129764
0.147374
0.170979
0.190724
0.19935
0.203922
0.20199
0.199953
0.197629
0.197004
0.196824
0.197321
0.198224
0.199685
0.131798
0.129487
0.127705
0.126369
0.125476
0.125138
0.126175
0.132258
0.142423
0.152445
0.157471
0.159963
0.159335
0.158923
0.158126
0.157959
0.157957
0.158232
0.158701
0.159352
0.13178
0.129432
0.127593
0.126171
0.125143
0.124553
0.124638
0.126505
0.130122
0.13413
0.136472
0.137831
0.13813
0.138098
0.138026
0.138195
0.138451
0.138819
0.139293
0.139839
0.131769
0.129396
0.127515
0.126032
0.124909
0.124156
0.123835
0.124257
0.125363
0.12674
0.127674
0.128302
0.128564
0.128689
0.128833
0.129086
0.129375
0.129703
0.130098
0.130527
0.131763
0.129371
0.12746
0.125932
0.124739
0.123873
0.123339
0.123215
0.123419
0.12378
0.12406
0.124248
0.12444
0.124495
0.124582
0.124745
0.12495
0.125183
0.12547
0.125777
0.131759
0.129354
0.12742
0.125858
0.124614
0.123667
0.122999
0.122619
0.122451
0.122394
0.122356
0.122304
0.122307
0.12228
0.122299
0.122371
0.122481
0.122615
0.122798
0.122995
0.131758
0.129344
0.127392
0.125804
0.124522
0.123514
0.122755
0.122226
0.121864
0.121596
0.121374
0.121178
0.121053
0.120939
0.120877
0.120862
0.120887
0.120938
0.121035
0.121145
0.131758
0.129337
0.127372
0.125764
0.124454
0.123398
0.122572
0.121945
0.121463
0.121069
0.120722
0.120425
0.120202
0.120016
0.119886
0.119798
0.119758
0.119742
0.119771
0.11981
0.131759
0.129333
0.127358
0.125734
0.124399
0.123309
0.122433
0.121741
0.121176
0.120696
0.120261
0.119891
0.119595
0.119349
0.119164
0.119019
0.118921
0.118849
0.118819
0.1188
0.131761
0.129332
0.127349
0.125711
0.124356
0.123239
0.122326
0.121584
0.120963
0.120418
0.11993
0.119503
0.119148
0.118848
0.118607
0.118405
0.118249
0.118117
0.118024
0.117941
0.131763
0.129329
0.127335
0.125681
0.124302
0.123154
0.122202
0.121408
0.120729
0.120121
0.119564
0.119061
0.118627
0.118235
0.117895
0.117585
0.117316
0.117063
0.116842
0.116625
0.131728
0.129244
0.127186
0.125452
0.123979
0.122722
0.121645
0.120714
0.119877
0.119099
0.118357
0.117666
0.117028
0.116444
0.115907
0.115404
0.114932
0.114478
0.114053
0.113634
0.132634
0.099942
0.100807
0.179973
0.247962
0.310475
0.133383
0.131777
0.131283
0.135058
0.172061
0.254153
0.376589
0.299956
0.378441
0.560789
0.764426
1.07253
1.0262
1.22959
0.132299
0.130767
0.130117
0.130683
0.135345
0.168583
0.297145
0.34249
0.246293
0.713349
0.860983
0.98308
1.05376
1.23423
1.25409
0.132088
0.13025
0.129168
0.128897
0.130141
0.141005
0.218413
0.306382
0.27831
0.207802
0.399049
0.582007
0.643797
0.699017
0.750845
0.822701
0.882935
0.994788
0.131953
0.129906
0.128522
0.127786
0.12793
0.131387
0.164582
0.24225
0.305603
0.328053
0.357936
0.396232
0.401195
0.415886
0.425776
0.435327
0.448427
0.469477
0.497756
0.533811
0.131874
0.129698
0.128122
0.127095
0.126713
0.127744
0.139443
0.182553
0.222928
0.250198
0.261974
0.270876
0.27462
0.274164
0.272357
0.272114
0.273752
0.278026
0.284093
0.292513
0.131827
0.12957
0.12787
0.126658
0.125963
0.126068
0.129784
0.147485
0.171237
0.190963
0.199242
0.203788
0.201943
0.200094
0.197797
0.197008
0.196816
0.197333
0.198251
0.199717
0.131798
0.129487
0.127704
0.126369
0.125476
0.125138
0.126177
0.132275
0.142471
0.152452
0.15737
0.15989
0.159324
0.158945
0.158173
0.15796
0.157965
0.158245
0.158714
0.159365
0.13178
0.129432
0.127592
0.126171
0.125143
0.124553
0.124638
0.126506
0.130128
0.134119
0.136433
0.137809
0.138133
0.13807
0.138043
0.138201
0.138458
0.138826
0.139298
0.139844
0.131769
0.129396
0.127515
0.126032
0.124909
0.124156
0.123835
0.124257
0.125364
0.126736
0.127662
0.128306
0.128585
0.128689
0.12884
0.129084
0.129375
0.129705
0.1301
0.130529
0.131763
0.129371
0.12746
0.125931
0.124739
0.123873
0.123339
0.123214
0.123419
0.123779
0.124057
0.12424
0.124438
0.124493
0.124588
0.124746
0.124951
0.125184
0.125471
0.125777
0.13176
0.129354
0.12742
0.125858
0.124614
0.123666
0.122999
0.122619
0.122451
0.122394
0.122355
0.122302
0.122308
0.12228
0.122301
0.122371
0.122481
0.122615
0.122798
0.122996
0.131758
0.129344
0.127392
0.125803
0.124522
0.123514
0.122754
0.122225
0.121864
0.121596
0.121374
0.121177
0.121053
0.120938
0.120878
0.120861
0.120887
0.120938
0.121036
0.121145
0.131758
0.129337
0.127372
0.125764
0.124454
0.123398
0.122572
0.121945
0.121463
0.121069
0.120722
0.120425
0.120202
0.120016
0.119887
0.119798
0.119758
0.119742
0.119771
0.11981
0.13176
0.129333
0.127358
0.125734
0.124399
0.123309
0.122433
0.121741
0.121176
0.120696
0.12026
0.119891
0.119595
0.119349
0.119165
0.11902
0.118921
0.118849
0.118819
0.1188
0.131762
0.129332
0.127348
0.125711
0.124356
0.123239
0.122326
0.121584
0.120963
0.120418
0.11993
0.119503
0.119149
0.118848
0.118607
0.118405
0.118249
0.118117
0.118024
0.117941
0.131763
0.129329
0.127335
0.125681
0.124302
0.123154
0.122202
0.121408
0.120729
0.120121
0.119564
0.119061
0.118627
0.118235
0.117895
0.117586
0.117315
0.117063
0.116842
0.116626
0.131728
0.129244
0.127185
0.125452
0.123979
0.122722
0.121645
0.120714
0.119877
0.1191
0.118357
0.117665
0.117028
0.116444
0.115907
0.115404
0.114932
0.114478
0.114053
0.113634
0.13273
0.103145
0.0974626
0.173766
0.251513
0.318086
0.133384
0.131805
0.131314
0.13483
0.171249
0.252052
0.377267
0.310461
0.376472
0.560906
0.765207
1.07246
1.02576
1.22932
0.132299
0.130767
0.130116
0.130678
0.135312
0.167911
0.293526
0.334237
0.256431
0.70076
0.857367
0.986684
1.05481
1.23372
1.25153
0.132088
0.130249
0.129166
0.128895
0.130137
0.140977
0.217268
0.301629
0.277281
0.202976
0.416097
0.580603
0.640704
0.697489
0.750787
0.823005
0.883137
0.994975
0.131952
0.129905
0.128522
0.127785
0.127929
0.131395
0.164528
0.240883
0.303042
0.327178
0.358947
0.396865
0.400267
0.414371
0.425157
0.435608
0.448811
0.469669
0.497839
0.533881
0.131874
0.129698
0.128122
0.127095
0.126712
0.127745
0.139493
0.182525
0.223236
0.250999
0.262352
0.270434
0.273657
0.273938
0.272472
0.272333
0.273883
0.278059
0.284105
0.292542
0.131827
0.129569
0.127869
0.126657
0.125963
0.126068
0.1298
0.147559
0.17145
0.191223
0.199209
0.203667
0.201866
0.200182
0.197938
0.19703
0.196807
0.197333
0.198264
0.199739
0.131798
0.129487
0.127704
0.126368
0.125476
0.125138
0.126179
0.132288
0.142513
0.152469
0.157288
0.159816
0.159297
0.158953
0.158208
0.157964
0.157969
0.158254
0.158724
0.159374
0.13178
0.129432
0.127592
0.126171
0.125143
0.124553
0.124637
0.126507
0.130133
0.134109
0.136396
0.137781
0.138128
0.138046
0.138051
0.138205
0.138464
0.138831
0.139302
0.139847
0.131769
0.129396
0.127515
0.126032
0.124909
0.124156
0.123835
0.124256
0.125364
0.126731
0.127651
0.128307
0.128602
0.128692
0.128846
0.129084
0.129374
0.129706
0.130101
0.130531
0.131763
0.129371
0.127459
0.125931
0.124739
0.123873
0.123339
0.123214
0.123418
0.123778
0.124053
0.124233
0.124434
0.124492
0.124592
0.124748
0.124951
0.125185
0.125471
0.125778
0.13176
0.129354
0.12742
0.125858
0.124614
0.123666
0.122999
0.122619
0.122451
0.122394
0.122354
0.1223
0.122308
0.122279
0.122303
0.122371
0.122481
0.122616
0.122799
0.122996
0.131758
0.129344
0.127392
0.125803
0.124522
0.123514
0.122754
0.122225
0.121864
0.121596
0.121373
0.121177
0.121054
0.120938
0.120879
0.120861
0.120887
0.120938
0.121036
0.121146
0.131758
0.129337
0.127372
0.125764
0.124453
0.123398
0.122572
0.121945
0.121463
0.121069
0.120721
0.120424
0.120202
0.120016
0.119888
0.119799
0.119758
0.119742
0.119771
0.11981
0.13176
0.129333
0.127358
0.125734
0.124399
0.123309
0.122433
0.121741
0.121176
0.120696
0.12026
0.119891
0.119595
0.119349
0.119165
0.11902
0.118921
0.118849
0.118819
0.1188
0.131762
0.129332
0.127348
0.125711
0.124356
0.123239
0.122326
0.121584
0.120963
0.120418
0.11993
0.119503
0.119149
0.118847
0.118607
0.118405
0.118248
0.118117
0.118024
0.117941
0.131763
0.129329
0.127335
0.125681
0.124302
0.123154
0.122202
0.121408
0.120729
0.120121
0.119564
0.119062
0.118627
0.118235
0.117895
0.117586
0.117315
0.117063
0.116842
0.116626
0.131728
0.129244
0.127185
0.125452
0.123979
0.122722
0.121645
0.120714
0.119877
0.1191
0.118357
0.117665
0.117027
0.116444
0.115907
0.115404
0.114932
0.114478
0.114053
0.113634
0.132781
0.105717
0.0945926
0.169658
0.255614
0.326629
0.133385
0.13183
0.131353
0.134598
0.17056
0.250221
0.379438
0.32377
0.37438
0.560667
0.76571
1.07274
1.02545
1.22899
0.132299
0.130767
0.130115
0.130672
0.135271
0.167272
0.290761
0.332126
0.266839
0.691521
0.851659
0.989219
1.05616
1.23336
1.25126
0.132088
0.130248
0.129165
0.128893
0.130131
0.140914
0.216029
0.298611
0.28183
0.200197
0.431528
0.580446
0.638192
0.695811
0.750459
0.823126
0.883463
0.995129
0.131952
0.129905
0.128521
0.127784
0.127927
0.131397
0.164368
0.239318
0.29995
0.325707
0.35992
0.397692
0.399758
0.413035
0.42435
0.435667
0.449119
0.469852
0.497914
0.533935
0.131874
0.129698
0.128121
0.127094
0.126712
0.127745
0.139516
0.182332
0.223254
0.251598
0.262815
0.2702
0.272855
0.27359
0.272479
0.272501
0.274014
0.278097
0.284107
0.292556
0.131827
0.129569
0.127869
0.126657
0.125963
0.126068
0.129813
0.147597
0.171607
0.191479
0.199243
0.203573
0.201776
0.200226
0.198052
0.197063
0.196802
0.197326
0.198268
0.199753
0.131798
0.129487
0.127704
0.126368
0.125475
0.125138
0.126181
0.132299
0.14255
0.152496
0.157226
0.159744
0.15926
0.15895
0.158233
0.157969
0.15797
0.158259
0.15873
0.15938
0.13178
0.129432
0.127592
0.126171
0.125143
0.124553
0.124637
0.126507
0.130135
0.1341
0.136362
0.13775
0.138118
0.138025
0.138054
0.138208
0.138467
0.138835
0.139305
0.139849
0.131769
0.129396
0.127514
0.126032
0.124908
0.124156
0.123835
0.124256
0.125363
0.126726
0.127639
0.128303
0.128615
0.128696
0.128851
0.129083
0.129373
0.129706
0.130102
0.130532
0.131763
0.129371
0.127459
0.125931
0.124739
0.123873
0.123339
0.123214
0.123418
0.123776
0.12405
0.124226
0.12443
0.124489
0.124595
0.124749
0.124952
0.125185
0.125472
0.125778
0.13176
0.129354
0.12742
0.125858
0.124614
0.123666
0.122999
0.122619
0.12245
0.122393
0.122353
0.122299
0.122309
0.122279
0.122304
0.122371
0.122481
0.122616
0.122799
0.122996
0.131758
0.129344
0.127392
0.125803
0.124522
0.123513
0.122754
0.122225
0.121864
0.121596
0.121373
0.121176
0.121054
0.120938
0.12088
0.120861
0.120887
0.120938
0.121036
0.121146
0.131759
0.129337
0.127372
0.125764
0.124453
0.123398
0.122572
0.121945
0.121463
0.121069
0.120721
0.120424
0.120202
0.120016
0.119889
0.119799
0.119758
0.119742
0.119771
0.11981
0.13176
0.129333
0.127358
0.125734
0.124399
0.123309
0.122433
0.121741
0.121176
0.120695
0.12026
0.11989
0.119595
0.119349
0.119165
0.11902
0.118921
0.118849
0.118819
0.1188
0.131762
0.129332
0.127348
0.125711
0.124356
0.123239
0.122326
0.121584
0.120963
0.120418
0.11993
0.119503
0.119149
0.118847
0.118607
0.118406
0.118248
0.118117
0.118024
0.117941
0.131763
0.129329
0.127335
0.125681
0.124302
0.123154
0.122202
0.121408
0.120729
0.120121
0.119564
0.119062
0.118628
0.118235
0.117895
0.117586
0.117315
0.117063
0.116842
0.116626
0.131728
0.129244
0.127185
0.125452
0.123979
0.122722
0.121645
0.120714
0.119877
0.1191
0.118357
0.117664
0.117027
0.116444
0.115907
0.115404
0.114932
0.114478
0.114053
0.113634
0.132807
0.107662
0.092529
0.166695
0.259483
0.335039
0.133385
0.131852
0.131397
0.134373
0.169999
0.248705
0.382668
0.338715
0.372527
0.56
0.765881
1.07337
1.02527
1.22859
0.1323
0.130768
0.130114
0.130665
0.135226
0.166674
0.288896
0.334911
0.275526
0.686397
0.844601
0.990391
1.05753
1.23317
1.25097
0.132087
0.130248
0.129164
0.12889
0.130125
0.140827
0.214827
0.297116
0.284721
0.201093
0.443714
0.58156
0.636384
0.694129
0.749932
0.823082
0.883868
0.995257
0.131952
0.129904
0.12852
0.127783
0.127925
0.131393
0.164133
0.237719
0.296367
0.323713
0.360567
0.398614
0.399603
0.411942
0.423452
0.435536
0.449341
0.47002
0.497986
0.533977
0.131874
0.129697
0.128121
0.127094
0.126711
0.127745
0.139516
0.182012
0.222992
0.251944
0.263282
0.270137
0.272218
0.273185
0.272393
0.272614
0.274138
0.278143
0.284109
0.292561
0.131827
0.129569
0.127869
0.126657
0.125962
0.126068
0.129822
0.1476
0.171696
0.191704
0.199323
0.203514
0.201686
0.200237
0.19814
0.197103
0.196804
0.197317
0.198265
0.199759
0.131798
0.129487
0.127704
0.126368
0.125475
0.125137
0.126182
0.132306
0.142581
0.152528
0.157183
0.159678
0.159217
0.158938
0.158249
0.157974
0.157971
0.158261
0.158733
0.159384
0.13178
0.129432
0.127592
0.126171
0.125143
0.124553
0.124637
0.126506
0.130137
0.134093
0.136333
0.137717
0.138102
0.138004
0.138051
0.13821
0.13847
0.138838
0.139308
0.139851
0.131769
0.129396
0.127514
0.126031
0.124908
0.124156
0.123835
0.124255
0.125362
0.126721
0.127628
0.128297
0.128623
0.1287
0.128856
0.129084
0.129372
0.129706
0.130103
0.130533
0.131763
0.129371
0.127459
0.125931
0.124739
0.123873
0.123339
0.123214
0.123417
0.123774
0.124046
0.124219
0.124426
0.124487
0.124597
0.12475
0.124952
0.125185
0.125472
0.125779
0.13176
0.129354
0.12742
0.125858
0.124614
0.123666
0.122999
0.122619
0.12245
0.122392
0.122351
0.122297
0.122309
0.122279
0.122306
0.122371
0.12248
0.122616
0.122799
0.122996
0.131758
0.129344
0.127392
0.125803
0.124522
0.123513
0.122754
0.122225
0.121864
0.121595
0.121372
0.121175
0.121054
0.120937
0.120881
0.120861
0.120887
0.120939
0.121036
0.121146
0.131759
0.129337
0.127372
0.125764
0.124453
0.123398
0.122572
0.121945
0.121463
0.121069
0.120721
0.120423
0.120202
0.120015
0.119889
0.1198
0.119758
0.119742
0.119771
0.11981
0.13176
0.129333
0.127358
0.125734
0.124399
0.123309
0.122433
0.121741
0.121176
0.120695
0.12026
0.11989
0.119595
0.119349
0.119165
0.11902
0.118921
0.118848
0.118819
0.1188
0.131762
0.129332
0.127348
0.125711
0.124356
0.123239
0.122326
0.121584
0.120963
0.120418
0.11993
0.119503
0.119149
0.118847
0.118607
0.118406
0.118248
0.118117
0.118024
0.117941
0.131763
0.129329
0.127335
0.125681
0.124302
0.123154
0.122202
0.121408
0.120729
0.120121
0.119564
0.119062
0.118628
0.118235
0.117895
0.117587
0.117315
0.117063
0.116842
0.116626
0.131728
0.129244
0.127185
0.125452
0.123979
0.122722
0.121645
0.120714
0.119877
0.1191
0.118356
0.117664
0.117027
0.116444
0.115907
0.115404
0.114932
0.114478
0.114053
0.113634
0.132821
0.109065
0.0914216
0.164499
0.262988
0.342621
0.133385
0.131871
0.131444
0.134162
0.16956
0.247528
0.386556
0.354086
0.3712
0.558929
0.765688
1.07431
1.02524
1.22814
0.1323
0.130769
0.130114
0.130658
0.135177
0.166125
0.287902
0.340327
0.282903
0.685344
0.837404
0.990245
1.05895
1.23317
1.25068
0.132087
0.130247
0.129163
0.128888
0.130118
0.140725
0.213752
0.296866
0.284783
0.203169
0.452569
0.583801
0.635361
0.692575
0.749276
0.822908
0.884328
0.995361
0.131952
0.129904
0.128519
0.127782
0.127924
0.131385
0.163851
0.236226
0.292631
0.321227
0.360679
0.399566
0.399694
0.411118
0.422532
0.435246
0.449469
0.470168
0.498059
0.534017
0.131874
0.129697
0.12812
0.127093
0.12671
0.127744
0.139495
0.181608
0.222482
0.252009
0.263679
0.270198
0.271736
0.272768
0.272233
0.272669
0.274248
0.278195
0.284113
0.29256
0.131827
0.129569
0.127869
0.126656
0.125962
0.126067
0.129827
0.147571
0.171715
0.191874
0.199428
0.203489
0.201605
0.200225
0.198203
0.197144
0.196811
0.197309
0.198259
0.199761
0.131798
0.129487
0.127704
0.126368
0.125475
0.125137
0.126183
0.132309
0.142603
0.15256
0.157155
0.159619
0.159171
0.158919
0.158257
0.157978
0.157971
0.158262
0.158735
0.159386
0.13178
0.129432
0.127592
0.126171
0.125143
0.124553
0.124637
0.126506
0.130138
0.134086
0.136307
0.137684
0.138083
0.137984
0.138045
0.138209
0.138471
0.13884
0.13931
0.139852
0.131769
0.129396
0.127514
0.126031
0.124908
0.124156
0.123835
0.124255
0.12536
0.126716
0.127618
0.12829
0.128628
0.128704
0.12886
0.129085
0.129372
0.129706
0.130103
0.130533
0.131763
0.129371
0.127459
0.125931
0.124739
0.123873
0.123339
0.123213
0.123416
0.123772
0.124043
0.124213
0.124421
0.124484
0.124598
0.124751
0.124952
0.125185
0.125472
0.125779
0.13176
0.129354
0.12742
0.125858
0.124614
0.123666
0.122999
0.122618
0.12245
0.122392
0.12235
0.122295
0.122308
0.122278
0.122306
0.122372
0.12248
0.122616
0.122799
0.122996
0.131758
0.129344
0.127392
0.125804
0.124522
0.123513
0.122754
0.122225
0.121864
0.121595
0.121372
0.121175
0.121053
0.120937
0.120881
0.120861
0.120887
0.120939
0.121036
0.121146
0.131759
0.129337
0.127372
0.125764
0.124453
0.123398
0.122571
0.121945
0.121463
0.121069
0.120721
0.120423
0.120202
0.120015
0.11989
0.1198
0.119758
0.119742
0.119771
0.11981
0.13176
0.129333
0.127358
0.125733
0.124399
0.123309
0.122433
0.121741
0.121176
0.120695
0.12026
0.11989
0.119595
0.119349
0.119165
0.11902
0.118921
0.118848
0.118819
0.1188
0.131762
0.129332
0.127348
0.125711
0.124356
0.123239
0.122326
0.121584
0.120963
0.120418
0.119929
0.119502
0.119149
0.118847
0.118607
0.118406
0.118248
0.118116
0.118024
0.117941
0.131763
0.129329
0.127335
0.125681
0.124302
0.123154
0.122202
0.121408
0.120729
0.120121
0.119564
0.119062
0.118628
0.118234
0.117895
0.117587
0.117315
0.117062
0.116842
0.116626
0.131728
0.129244
0.127185
0.125452
0.123979
0.122722
0.121645
0.120714
0.119877
0.1191
0.118356
0.117664
0.117026
0.116444
0.115907
0.115404
0.114932
0.114478
0.114053
0.113634
0.132828
0.110034
0.0911966
0.163068
0.266201
0.34911
0.133385
0.131888
0.131493
0.133972
0.169234
0.246692
0.390772
0.369005
0.370566
0.557574
0.76514
1.07547
1.02532
1.22768
0.1323
0.13077
0.130114
0.130651
0.135127
0.165633
0.2877
0.347174
0.2892
0.687784
0.830904
0.988648
1.06013
1.23348
1.25295
0.132087
0.130247
0.129162
0.128886
0.130111
0.140615
0.212864
0.297635
0.28457
0.204859
0.459059
0.58693
0.635151
0.691254
0.748553
0.822626
0.884791
0.995507
0.131952
0.129904
0.128518
0.127781
0.127922
0.131372
0.163551
0.234951
0.289251
0.31825
0.360226
0.400312
0.39999
0.410572
0.421672
0.434838
0.449502
0.470285
0.498127
0.534059
0.131874
0.129697
0.12812
0.127092
0.12671
0.127742
0.139458
0.181164
0.221777
0.251788
0.263949
0.270329
0.271392
0.272371
0.272021
0.272667
0.274336
0.278252
0.284121
0.292557
0.131827
0.129569
0.127869
0.126656
0.125962
0.126067
0.129829
0.147513
0.171662
0.191971
0.199533
0.203493
0.201538
0.200199
0.198244
0.197182
0.196823
0.197304
0.19825
0.199758
0.131798
0.129487
0.127704
0.126368
0.125475
0.125137
0.126184
0.132308
0.142615
0.152587
0.157139
0.159569
0.159124
0.158895
0.158258
0.15798
0.15797
0.158262
0.158735
0.159387
0.13178
0.129432
0.127592
0.12617
0.125143
0.124553
0.124637
0.126506
0.130138
0.134081
0.136284
0.137654
0.138061
0.137964
0.138037
0.138207
0.138471
0.138841
0.139311
0.139853
0.131769
0.129396
0.127514
0.126031
0.124908
0.124156
0.123835
0.124254
0.125359
0.126711
0.127608
0.128282
0.12863
0.128708
0.128864
0.129086
0.129371
0.129705
0.130103
0.130533
0.131763
0.129371
0.127459
0.125931
0.124739
0.123873
0.123339
0.123213
0.123415
0.12377
0.12404
0.124208
0.124416
0.12448
0.124598
0.124752
0.124953
0.125185
0.125472
0.125779
0.13176
0.129354
0.12742
0.125858
0.124614
0.123666
0.122999
0.122618
0.122449
0.122391
0.122349
0.122294
0.122307
0.122278
0.122307
0.122372
0.12248
0.122616
0.122799
0.122997
0.131758
0.129344
0.127392
0.125804
0.124522
0.123513
0.122754
0.122225
0.121864
0.121595
0.121371
0.121174
0.121053
0.120937
0.120882
0.120861
0.120886
0.120939
0.121036
0.121146
0.131759
0.129337
0.127372
0.125764
0.124453
0.123398
0.122571
0.121945
0.121463
0.121069
0.12072
0.120423
0.120202
0.120015
0.11989
0.119801
0.119758
0.119742
0.119771
0.11981
0.13176
0.129333
0.127358
0.125733
0.124399
0.123309
0.122433
0.121741
0.121175
0.120695
0.12026
0.11989
0.119595
0.119348
0.119165
0.11902
0.118921
0.118848
0.118819
0.1188
0.131762
0.129332
0.127348
0.125711
0.124356
0.123239
0.122326
0.121584
0.120963
0.120418
0.119929
0.119502
0.119149
0.118847
0.118607
0.118406
0.118248
0.118116
0.118024
0.117942
0.131763
0.129329
0.127335
0.125681
0.124302
0.123154
0.122202
0.121408