/*--------------------------------*- C++ -*----------------------------------*\
  =========                 |
  \\      /  F ield         | OpenFOAM: The Open Source CFD Toolbox
   \\    /   O peration     | Website:  https://openfoam.org
    \\  /    A nd           | Version:  10
     \\/     M anipulation  |
\*---------------------------------------------------------------------------*/
FoamFile
{
    format      ascii;
    class       surfaceScalarField;
    location    "2000";
    object      phi;
}
// * * * * * * * * * * * * * * * * * * * * * * * * * * * * * * * * * * * * * //

dimensions      [0 3 -1 0 0 0 0];

internalField   nonuniform List<scalar> 
155308
(
-2.15702
20.7524
111.711
2.04366
1.52507
-20.4416
20.2998
106.69
-4.54082
1.42242
0.583808
0.534732
1.28358
-19.9718
19.7575
106.227
-4.33011
1.28672
0.552916
0.618054
0.756334
-5.0211
4.99172
26.2876
-0.288446
-1.82581
-3.72551
3.56657
19.7129
1.82696
-2.15302
3.01726
-0.771115
17.6247
1.32721
14.9072
84.7244
-14.8005
459.368
38.9028
-84.5784
84.021
-38.0796
454.367
36.7454
-83.3196
83.2322
-35.4032
449.85
-2.24882
-85.0827
85.2512
-26.1557
451.139
-2.57799
17.0215
15.8209
-4.04413
-85.0255
83.7562
-16.6075
458.749
-3.49086
10.9362
11.4589
-0.95882
-81.0968
76.5088
-9.77111
439.24
-0.141276
10.7043
7.72792
-32.574
89.1032
416.088
-18.7657
-7.45863
-16.016
-69.2004
15.1484
13.9895
14.934
15.8998
-4.83973
-9.14914
32.6898
94.7551
-6.19371
-11.406
-11.8794
1.08252
4.2107
4.49384
2.79615
-2.79078
2.00243
28.3386
0.787597
-5.1168
6.0827
-1.29259
62.4631
0.328588
1.12642
-7.77318
8.88781
-2.19021
71.5259
2.82232
-10.6084
46.4821
-9.38284
328.349
1.48144
2.78818
1.1839
-11.8344
-10.6118
-11.7824
-0.954262
-11.9533
12.9998
-0.0664911
82.8185
2.69859
-56.475
56.681
-11.3913
351.056
2.95155
2.8724
2.75142
344.7
-68.8413
1878.93
14.3046
36.6951
15.4373
29.3928
341.873
-128.25
1873.08
37.1807
36.4733
31.8519
31.0738
342.004
-107.723
1863.63
34.2938
31.6468
28.6633
24.664
342.066
-80.06
1872.08
25.405
19.4605
19.0444
19.5146
335.109
-57.6026
1871.35
15.6009
15.6784
19.1274
16.0238
344.639
-2.10448
1837.04
6.9946
-52.5671
11.467
37.6975
66.773
100.166
1814.7
69.5367
97.9458
107.191
-94.4058
-99.5511
66.3687
43.6902
-34.2136
103.702
446.247
23.9471
11.1968
22.0791
16.7124
-39.2125
-23.9583
-29.3373
-0.876646
37.8534
5.70319
-6.13327
-50.6288
20.6521
55.4072
-24.5624
347.125
15.3707
-60.1794
64.0184
-18.9528
374.441
13.7436
-66.1876
67.9584
-15.5016
386.771
75.5174
-48.812
1639.78
10.6798
11.1612
10.0167
10.4845
-70.9433
-79.58
-70.9902
-79.7362
78.3852
75.4632
78.3103
9.73672
75.0541
-9.41683
407.381
-40.8637
1642.98
11.6238
9.25173
11.1502
8.13089
-75.4903
-80.15
-75.549
-80.6519
351.231
-65.5259
1911.32
349.498
-120.236
1911.9
349.987
-100.402
1905.14
349.424
-73.3843
1907.11
347.823
-49.7022
1903.68
352.166
2.30708
1888.66
75.2866
81.8587
1861.8
87.1703
114.453
117.302
-96.8905
89.096
90.3557
451.451
-27.8517
-24.8514
26.6174
106.273
24.6801
-10.4315
6.51294
2.01677
21.8355
0.559712
-4.78076
1.12472
-2.57156
78.4011
19.8139
-4.91442
-4.50825
-4.50127
0.718937
1.32774
0.778663
-23.8346
50.4628
81.2985
18.2375
353.577
-20.4807
-24.774
-21.8553
371.742
-94.3345
1727.16
24.0643
22.5275
24.2789
22.484
-88.1306
-91.4777
-91.5609
-97.7657
369.709
-75.1156
1777.03
19.606
18.0822
19.8515
18.3562
368.682
-62.1409
1785.45
15.4587
13.7306
15.9484
15.9291
366.306
-48.0049
1790.38
365.098
-46.0727
1800.02
11.871
11.6229
10.2969
12.3441
-39.6729
1785.75
356.377
-61.8138
1939.84
355.384
-112.107
1942.13
356.419
-92.8756
1936.46
356.992
-66.6945
1937.1
358.85
-43.7217
1933.62
368.691
3.63888
1920.9
416.271
54.3519
1895.31
111.849
97.7462
1928.18
-76.5944
-53.4849
2.61591
-12.84
111.065
112.734
112.269
-40.9467
120.182
30.6501
475.079
-6.90634
123.333
2.13327
450.632
-5.69963
6.08075
6.84614
-122.182
-2.7743
-30.6427
31.3407
110.32
2.58698
4.31496
-119.892
123.033
10.9757
428.894
-11.0542
5.28329
-3.09479
-23.0526
-115.01
113.166
26.5183
444.774
414.711
-131.926
1842
-5.7341
24.1121
111.206
90.5833
-112.353
-115.863
-92.4077
-102.926
403.407
-82.3032
1845.94
397.838
-70.0924
1878.15
394.135
-59.3774
1878.15
392.154
-46.828
1881.53
389.675
-44.1092
1890.69
-38.3487
1877.25
360.757
-57.8338
1964.23
360.262
-103.916
1967.12
361.875
-85.4119
1962.05
363.615
-60.4979
1962.2
368.104
-39.0493
1958.26
382.184
4.32226
1943.91
416.646
45.9446
1926.61
449.719
74.1327
1939.34
469.637
33.4493
1937.08
-23.7912
-10.0153
-20.7637
-6.74056
482.284
-24.5509
1891.74
-0.649972
5.12786
2.08721
8.16175
471.771
-84.2838
1887.43
23.9364
25.7427
25.7449
27.3822
468.378
-43.2464
1959.41
-13.1565
-20.3786
2.83124
26.0435
454.176
-50.8734
1891.22
-27.7137
-35.5303
52.1905
80.2498
419.516
-102.549
1920.95
413.07
-73.2948
1905.14
407.246
-64.1759
1926.87
402.937
-55.5293
1924.72
400.341
-44.6363
1928.49
397.756
-41.862
1937.76
-36.8627
1927.17
364.551
-53.5993
1985.37
364.442
-95.6275
1988.34
366.564
-78.1073
1983.68
369.309
-54.815
1983.51
376.275
-35.1924
1978.14
397.134
-3.98862
1966.89
421.189
18.559
1972.98
448.368
43.4509
1975.16
463.431
14.9285
1969.85
475.214
-32.1965
1937.53
464.438
-75.4893
1947.4
461.805
-31.4451
1931.08
441.294
-37.8974
1948.78
396.855
-55.3704
1886.6
417.247
-86.5775
1880.1
411.388
-57.7384
1957.34
406.639
-50.9756
1954.47
403.571
-41.9239
1958.45
400.869
-39.4637
1966.9
-35.0386
1958.18
367.883
-49.2094
2003.98
368.117
-87.2858
2006.79
370.639
-70.9651
2002.52
374.142
-49.5154
2002.12
382.782
-31.9968
1995.76
406.581
1.95985
1973.89
423.264
18.2375
1986.09
446.137
26.1896
1990.75
457.869
3.33184
1995.18
467.726
-36.5466
1970.45
459.814
-68.0945
1980.88
459.603
-22.4249
1965.6
441.254
-27.1512
1980.62
430.208
-45.5227
1981.22
419.661
-75.9862
1983.73
414.026
-51.4494
1982.53
409.224
-46.2702
1979.13
405.926
-38.8724
1983.13
402.944
-36.6261
1990.56
-32.8508
1982.8
370.855
-44.6822
2020.56
371.376
-78.8946
2023.16
374.197
-63.9077
2019.21
378.19
-44.4939
2018.78
387.283
-29.2108
2012.56
409.092
-0.0880955
1992.85
424.453
10.737
2010.27
443.002
13.3946
2010.56
452.84
-5.69576
2016
461.226
-38.4827
1996
454.708
-60.8309
2006.69
456.342
-15.8356
1993.42
441.269
-19.1501
2006.18
431.378
-37.127
2005.63
421.764
-66.0463
2006.03
416.143
-45.2858
2003.89
411.228
-41.4521
2000.21
407.719
-35.5452
2003.75
404.512
-33.5844
2010.49
-30.3775
2003.42
373.543
-40.0061
2035.55
374.301
-70.4547
2037.92
377.345
-56.9459
2034.36
381.674
-39.6556
2033.95
390.655
-26.5458
2028.52
411.237
-2.26609
2012.31
425.082
6.1739
2028.99
439.574
4.26431
2030.57
448.303
-12.1431
2033.37
455.616
-38.3952
2016.83
451.006
-54.2289
2027.16
448.878
9.87317
1994.5
441.199
-3.56385
2008.61
432.135
-29.8739
2026.72
423.159
-56.7329
2025.25
417.672
-39.3288
2022.31
412.87
-36.6171
2018.59
409.179
-31.9682
2021.73
405.796
-30.3023
2027.82
-27.6143
2021.36
376.003
-35.2577
2049.3
376.961
-61.9233
2051.41
380.154
-49.9889
2048.24
384.679
-34.8679
2047.9
393.243
-23.8587
2043.48
413.587
0.988622
2035.03
424.195
14.9054
2050.25
434.295
-2.55924
2048.63
444.052
-15.5347
2045.35
451.141
-36.7956
2034
447.764
-47.6282
2044.07
466.919
-62.3502
2107.16
440.587
-38.8454
2114.51
432.743
-23.8342
2044.98
424.334
-48.1626
2042.31
419.222
-33.6839
2038.57
414.407
-31.8293
2035.14
410.628
-28.2347
2037.83
406.999
-26.8626
2043.31
-24.6347
2037.43
378.267
-30.3863
2061.95
379.399
-53.313
2063.85
382.671
-43.0265
2061.06
387.334
-30.097
2060.77
395.594
-20.8637
2056.72
407.111
-1.04069
2044.65
423.457
21.1255
2057.07
430.069
10.3023
2063.99
440.661
-16.6791
2055.84
447.495
-33.7132
2048.91
445.222
-41.0583
2058.68
441.872
-52.4545
2051.81
440.085
-31.5659
2051.17
433.426
-18.7442
2061.07
425.07
-40.0446
2057.91
420.459
-28.2096
2052.94
415.717
-27.0854
2050.2
411.832
-24.3614
2052.46
408.074
-23.2445
2057.23
-21.4408
2052.13
380.37
-25.4823
2073.81
381.65
-44.6496
2075.43
387.329
-25.1122
2073.04
391.648
-0.704414
2072.44
400.635
9.35321
2067.02
407.782
18.901
2060.04
417.679
16.2161
2068.8
428.45
5.89426
2076.45
438.66
-16.9317
2066.75
444.789
-29.6739
2063.13
443.244
-34.3886
2071.91
440.947
-43.1891
2065.98
439.658
-25.2191
2066.8
433.858
-14.4367
2075.65
425.253
-32.3416
2072.52
421.446
-22.929
2065.62
416.947
-22.3926
2063.99
412.924
-20.406
2065.94
409.142
-19.5138
2069.99
-18.0846
2065.68
382.333
-20.4873
2084.9
383.753
-35.8631
2086.26
386.379
-20.16
2084.24
391.542
-0.538837
2082.93
397.466
7.97167
2073.01
408.976
12.1235
2072.81
418.261
12.1852
2081.07
428.392
3.43824
2087.35
437.445
-14.3591
2077.93
442.846
-23.7307
2076.11
442.118
-27.5895
2083.78
440.493
-34.3514
2079.16
439.616
-19.5711
2080.91
434.379
-10.8496
2089.08
416.324
-13.1909
2059.18
422.474
-26.026
2053.63
418.135
-17.7904
2076.8
414.064
-16.3656
2078.54
410.203
-15.7045
2081.88
-14.6262
2078.25
384.176
-15.4622
2095.37
385.71
-27.0513
2096.51
388.353
-15.2153
2094.86
393.689
-0.442816
2093.31
401.873
6.22904
2087.81
410.232
8.8537
2092.17
418.674
8.5952
2093.56
428.347
1.67638
2097.23
436.198
-11.5428
2089.17
441.747
-18.5082
2088.17
442.147
-20.993
2094.54
440.598
-25.4136
2091.4
439.815
-14.2801
2093.86
435.117
-7.72047
2101.45
430.546
-9.61041
2101.84
423.58
-19.333
2098.48
419.252
-13.2868
2088.96
415.237
-12.3251
2090.36
411.331
-11.8494
2092.89
-11.0409
2090.1
385.914
-10.3599
2105.32
387.543
-18.1257
2106.19
390.171
-10.1911
2105
395.316
-0.344854
2103.9
403.692
1.98589
2102.05
410.883
4.28387
2106.68
419.035
5.3834
2104.2
428.186
0.687428
2106.15
435.732
-8.12281
2100.02
441.883
-7.9325
2099.26
441.914
-7.08667
2104.34
441.19
-16.9699
2102.67
440.455
-9.3771
2105.97
436.243
-4.94998
2112.91
431.773
-6.25378
2113.31
424.838
-12.8013
2109.02
420.572
-8.82806
2100.48
416.535
-8.21154
2101.41
412.594
-7.92518
2103.29
-7.3903
2101.37
387.556
-5.20166
2114.78
389.279
-9.10644
2115.4
391.864
-5.13343
2114.67
396.756
-0.206264
2114.05
403.993
0.828192
2111.51
411.312
2.0032
2114.3
419.445
2.55906
2113.71
428.294
0.279362
2114.39
436.195
-1.99175
2110.29
439.992
-0.552097
2109.61
442.645
-3.54146
2113.33
442.202
-8.61954
2113.3
441.339
-4.60552
2117.34
437.431
-2.39072
2123.61
433.065
-3.09608
2124.05
426.248
-6.38416
2118.94
421.952
-4.41347
2111.37
417.831
-4.1054
2111.93
413.868
-3.97831
2113.05
-3.72273
2111.97
389.097
2123.72
390.89
2123.96
393.418
2123.57
398.126
2123.26
404.474
2122.45
411.765
2123.02
419.82
2122.18
428.747
2121.34
435.32
2119.07
440.7
2118.39
444.047
2120.75
443.513
2122.22
442.459
2127
438.734
2132.55
434.419
2132.74
427.576
2126.77
423.133
2120.02
418.994
2120.11
414.999
2120.4
2120.04
-111.254
-0.16664
20.63
0.106256
111.105
-108.563
-20.6708
1.52999
20.5798
-1.37263
108.496
-108.475
1.11051
-20.4821
20.4294
-1.12767
108.544
-96.2471
0.663547
-18.6278
17.5741
-0.108365
96.7456
-86.6057
-17.3488
15.3851
0.854871
86.4619
1.25264
-76.2042
-13.6311
12.9536
-0.871031
76.4657
1.28714
-0.217021
-459.105
84.2031
0.282905
459.024
1.30119
-454.386
-84.0605
83.685
-0.923132
454.383
-0.484554
-448.65
-83.106
82.4628
1.47707
448.301
-8.14407
-450.694
-82.0074
82.8014
8.00737
450.037
-10.8655
-462.202
-84.2409
82.755
11.8894
462.663
-11.313
-441.745
-79.2762
74.9247
16.0979
441.311
-419.882
1.59704
66.3286
14.4518
418.437
1.49073
-5.37392
-5.70495
-71.3444
-99.4492
-6.1853
-16.1246
16.4327
5.30109
100.025
-28.2807
2.03112
-2.83389
28.2832
0.800275
-62.3891
-5.12144
6.07975
-1.27491
62.382
0.323717
-71.1936
1.11424
-7.73111
8.82859
-2.13589
71.1177
-327.384
2.8219
-10.5364
46.3047
-9.39775
326.716
1.49945
2.82057
1.16861
-11.7929
-10.5186
-11.7018
-82.4769
-0.971751
-11.8803
12.9336
0.00397319
82.3914
2.70883
-56.3703
-350.766
56.6179
-11.2637
350.511
2.95445
2.86676
2.7406
343.039
4.78097
1879.18
-0.581506
0.954576
-2.05777
-2.80052
340.966
10.145
1873.03
0.723086
0.22957
-3.98405
-4.99893
339.973
24.9257
1863.07
-1.95474
-4.71534
-7.20955
-9.49445
339.084
43.301
1873.66
-8.01858
-10.1443
-12.3194
-13.5071
331.571
66.0038
1874.62
-12.9256
-14.647
-16.1072
-18.0785
323.521
91.6236
1841.98
-19.0381
-16.401
-23.8688
-29.1987
82.8032
156.518
1792.79
86.8484
77.9961
82.184
-18.8517
-28.2856
-41.8393
-51.9458
-439.128
-56.7118
64.0143
432.638
20.7182
21.3549
20.751
19.1665
-45.1615
-12.5286
45.8268
7.6915
4.17179
20.4368
-51.1185
-346.719
55.3247
-23.9249
346.001
14.8514
-373.968
-60.0113
63.8464
-17.9712
373.253
13.1687
-66.1286
-386.718
67.917
-14.5052
386.266
75.4782
-47.2287
1638.15
10.2133
10.6491
10.6424
10.9212
-70.8711
-79.6106
-70.8367
-79.6552
78.3348
75.3732
78.2267
9.27977
-407.292
75.0624
-8.69977
407.127
-39.9392
1641.98
11.3343
9.01509
11.3567
8.18649
-75.4363
-80.1511
-75.4375
-80.6099
349.475
4.40527
1911.46
348.605
11.2084
1911.71
347.958
25.6389
1905.08
346.934
43.7457
1907.69
344.007
67.8266
1904.78
346.901
91.979
1885.41
92.3086
151.203
1850.39
94.6745
87.1954
89.4387
-460.473
-61.1907
94.4371
56.3427
463.193
-109.13
-23.9243
-26.0249
27.5418
23.2619
108.275
-81.7156
-27.1605
22.1015
3.84564
81.9037
1.0253
1.90398
-4.70563
-80.4578
-14.1104
85.018
21.0018
1.46097
1.34411
1.50908
-4.80117
-3.70959
-4.45331
378.727
-167.19
1661.78
-81.5886
-90.9478
-88.3243
-97.3838
44.8801
27.7265
28.828
27.7492
-388.247
-397.722
-428.81
-429.479
372.126
-86.8111
1727.92
22.9434
21.2173
25.2214
23.2682
370.347
-72.5204
1777.71
18.2677
16.7933
19.987
18.5662
369.291
-60.1546
1787.51
14.1865
12.5116
16.1855
16.2649
366.613
-46.2097
1792.04
365.318
-44.4881
1801.17
11.0395
10.8008
10.2949
12.4978
-38.3727
1786.13
354.609
4.00455
1939.81
354.461
11.6144
1941.88
354.441
25.7859
1936.33
354.487
43.5282
1937.27
354.974
66.8762
1934.08
362.68
88.0327
1917.14
384.969
129.981
1894.24
107.369
205.285
1930.79
-56.935
-62.4806
-61.944
-69.2595
106.362
107.071
106.886
-67.4616
115.144
59.3588
478.495
-478.167
-451.715
-28.6275
-118.803
118.131
29.4706
451.544
-434.769
-0.866322
120.139
5.19197
434.649
0.281574
-3.31115
-1.96618
-119.348
8.84943
-118.809
-427.541
107.123
-52.3864
442.729
20.3696
7.42144
12.2424
387.615
-189.735
1854.87
62.2251
68.9831
32.2332
42.2706
-107.751
-110.813
-112.395
-113.76
-451.252
-441.57
-460.529
-460.389
405.095
-161.653
1818.99
402.668
-72.3995
1833.95
398.203
-67.4725
1877.57
394.432
-57.5294
1879.3
392.304
-45.171
1882.62
389.626
-42.5997
1891.48
-37.0084
1877.56
359.005
3.62588
1964.12
359.337
11.6118
1966.79
359.948
25.3567
1961.87
361.161
42.3332
1962.18
363.953
64.0354
1958.31
374.984
82.4859
1938.43
396.041
110.447
1925.09
428.538
166.924
1945.21
460.064
152.002
1939.08
-51.8754
-37.8334
-54.7687
-41.0501
474.598
95.8986
1890.9
-28.2838
-21.9372
-32.223
-27.1535
468.941
0.701514
1896.19
-4.27498
9.27299
-9.7728
0.967636
446.704
-64.6146
1890.62
49.5529
80.0766
12.5061
13.5098
404.722
-185.579
1929.04
407.18
-143.063
1899.9
410.725
-63.7966
1892.99
407.323
-61.9017
1924.7
403.013
-53.9346
1925.44
400.363
-43.2252
1929.2
397.816
-40.5465
1938.26
-35.6393
1927.55
362.836
3.22984
1985.24
363.512
11.2474
1988.02
364.707
24.3503
1983.49
366.875
40.2641
1983.41
371.353
59.9341
1977.77
385.164
83.6941
1951.87
402.445
108.764
1957.39
428.336
145.56
1970.63
454.288
125.707
1970.19
469.055
81.1145
1937.55
464.579
4.12613
1948.45
449.685
-53.2725
1934.63
409.411
-164.578
1968.05
389.799
-178.624
1941.77
414.443
-135.034
1926.69
411.328
-55.8752
1954.42
406.595
-49.6421
1954.91
403.641
-40.71
1958.89
400.99
-38.3122
1967.32
-33.9663
1958.56
366.218
2.84199
2003.84
367.166
10.6498
2006.44
368.849
22.9348
2002.25
371.748
37.5549
2001.93
377.227
54.9819
1995.23
390.13
75.6512
1969.03
403.011
91.9957
1989.98
427.569
120.373
1991.38
449.165
104.199
1995.09
462.002
68.1563
1970.57
460.085
5.25594
1981.66
448.245
-43.6585
1967.82
413.605
-146.156
1996.84
402.534
-160.623
1974.29
416.827
-121.035
1955.44
413.992
-49.9414
1979.44
409.296
-45.2161
1979.4
406.12
-37.9023
1983.5
402.99
-35.7012
1991.08
-31.9815
1983.13
369.247
2.49023
2020.37
370.42
9.86632
2022.77
372.481
21.1624
2018.93
375.923
34.3749
2018.52
381.874
49.6041
2011.98
395.45
66.5355
1988.39
405.946
77.9385
2013.84
426.752
99.6495
2010.48
444.755
86.1483
2016.05
455.928
56.8611
1996.12
454.938
5.8394
2007.09
446.432
-36.0118
1994.27
415.626
-76.6225
1967.45
406.681
-109.959
1963.91
419.073
-107.818
1980.42
416.16
-44.0606
2000.93
411.432
-40.5957
2000.32
407.91
-34.7495
2004.12
404.625
-32.8098
2010.88
-29.6633
2003.77
371.993
2.12128
2035.35
373.337
8.94307
2037.5
375.704
19.1577
2034
379.54
30.8946
2033.59
385.78
43.9801
2027.9
399.2
57.2112
2008.21
408.557
65.8646
2031.7
426.086
81.8314
2030.86
441.115
71.1768
2033.32
450.742
47.2396
2016.82
451.17
5.50926
2027.06
443.091
-73.9327
2040.5
435.83
-108.768
2048.01
410.365
-96.2485
2038.47
420.684
-94.6721
2001.78
417.744
-38.3692
2019.56
412.994
-35.9681
2018.71
409.294
-31.3758
2022.06
405.907
-29.7372
2028.14
-27.0767
2021.71
374.5
1.81698
2049.03
375.98
7.93095
2050.95
378.588
16.9706
2047.82
382.694
27.1961
2047.49
389.035
38.2517
2042.86
401.834
51.6955
2027.74
410.519
60.7234
2046.7
424.631
66.0601
2050.28
438.124
57.6467
2045.39
446.72
38.836
2033.81
447.709
5.02241
2043.57
460.18
-33.4005
2054.15
436.257
-26.1938
2055.86
413.34
-82.6891
2054.34
421.786
-81.7086
2020.9
419.134
-32.7707
2035.62
414.45
-31.312
2035.17
410.595
-27.7688
2038.08
407.102
-26.4079
2043.47
-24.2103
2037.72
376.807
1.50526
2061.67
378.411
6.85315
2063.32
381.184
14.6626
2060.59
385.476
23.3761
2060.3
391.784
32.5911
2056.07
401.237
42.9086
2043.98
411.587
50.2048
2057.24
423.597
53.3311
2064.71
435.773
46.8858
2054.43
443.51
31.5699
2048.44
444.977
4.30006
2057.93
441.252
-27.6695
2049.81
436.436
-20.9629
2050.76
415.825
-69.376
2068.37
421.241
-68.2695
2039.05
420.064
-26.9519
2048.3
415.752
-26.6298
2049.83
411.791
-24.0078
2052.66
408.174
-22.9236
2057.36
-21.1299
2052.39
378.969
1.23409
2073.47
380.646
5.76325
2074.84
383.547
12.3047
2072.49
387.971
19.4912
2071.9
394.2
27.2248
2066.16
402.82
34.8944
2059.43
412.769
40.5598
2068.49
423.495
42.4873
2076.57
434.352
37.3148
2065.46
441.19
25.2062
2062.65
442.954
3.56189
2070.88
440.167
-22.4577
2063.55
436.597
-16.4393
2065.84
417.883
-56.3316
2081.32
419.11
-51.8367
2054.86
420.522
-19.2281
2056.48
416.904
-21.9484
2062.93
412.95
-20.1519
2066.04
409.163
-19.3082
2070.16
-17.8759
2065.84
380.99
0.951508
2084.55
382.723
4.60065
2085.69
385.716
9.87382
2083.68
390.242
15.642
2082.26
396.258
20.4743
2073.74
404.485
24.378
2075.1
413.964
31.4577
2080.7
423.937
32.7357
2087.13
433.391
28.6469
2077.14
439.62
19.5074
2075.58
441.631
2.87794
2082.45
439.564
-17.7203
2076.49
437.112
-12.5717
2079.5
420.557
-44.3266
2093.63
412.91
-60.394
2075.39
421.215
-45.1194
2071.22
418.008
-17.4305
2075.49
414.083
-16.2003
2078.51
410.218
-15.5456
2081.98
-14.4369
2078.34
382.884
0.694018
2094.99
384.673
3.46732
2095.86
387.727
7.40783
2094.27
392.343
11.7042
2092.64
399.818
15.5348
2085.28
406.383
17.874
2092.11
415.097
23.1102
2093.19
424.511
23.7444
2096.8
432.871
20.8898
2088.56
438.928
14.1086
2087.51
441.455
1.96647
2092.93
439.594
-12.8692
2088.41
437.803
-9.07593
2092.15
423.947
-32.9811
2103.96
420.138
-45.0167
2090.27
422.482
-33.6196
2084.64
419.269
-13.0173
2087.76
415.249
-12.1725
2090.35
411.345
-11.7095
2092.96
-10.9352
2090.21
384.677
0.449709
2104.92
386.503
2.29303
2105.54
389.591
4.92648
2104.39
394.206
7.769
2103.22
401.741
11.1679
2098.88
407.985
13.4524
2104.86
416.288
15.206
2103.8
425.043
15.4871
2105.65
432.947
13.6241
2099.38
438.534
9.28403
2098.5
441.226
1.1902
2102.42
440.113
-8.55972
2099.47
438.943
-5.88149
2103.95
427.872
-21.8552
2112.85
423.971
-30.0057
2102.2
424.164
-22.4087
2097.62
420.658
-8.66404
2099.63
416.548
-8.16369
2101.51
412.606
-7.85461
2103.38
-7.33364
2101.44
386.381
0.200724
2114.38
388.224
1.12529
2114.73
391.336
2.46071
2114.03
395.902
3.89742
2113.36
402.246
5.4739
2110.86
409.381
6.69125
2113.93
417.53
7.52606
2113.24
425.889
7.7015
2113.82
433.581
6.65227
2109.57
439.033
4.62257
2108.82
441.669
0.624799
2111.26
441.037
-4.36562
2109.74
440.402
-2.87316
2114.97
431.968
-10.9506
2121.14
428.084
-15.0715
2113
425.855
-11.2273
2109.99
421.964
-4.32078
2110.92
417.84
-4.09169
2111.98
413.876
-3.94241
2113.11
-3.68697
2112.02
387.993
2123.28
389.821
2123.25
392.932
2122.92
397.47
2122.62
403.55
2121.84
410.728
2122.53
418.758
2121.68
427.095
2120.71
434.497
2118.32
439.901
2117.61
442.77
2118.51
442.272
2118.35
442.107
2124.29
436.265
2127.44
432.136
2121.8
427.398
2120.28
423.149
2119.95
419.003
2120.16
415.007
2120.45
2120.1
-111.038
-0.821726
20.5961
0.667629
110.984
-20.6336
-108.421
-0.418184
0.484957
108.428
20.559
-108.523
-0.829674
-20.4755
20.428
0.844019
108.556
-97.0542
-1.19723
-18.6856
17.6444
2.10999
97.1827
-86.6182
-17.4815
15.3784
2.40353
86.5749
-0.257096
-76.6786
-13.6419
13.0323
0.944231
76.7116
-0.367636
-1.91834
-458.922
84.1396
2.08871
458.749
-3.17613
-454.266
-83.9884
83.6218
3.66276
454.146
-5.53623
-448.059
-83.0265
82.3004
6.3751
447.946
-12.9061
-449.663
-81.7765
82.6355
12.2916
449.418
-13.0118
-462.406
-84.2085
82.712
14.8873
462.027
-16.0963
-440.92
-79.2092
74.7522
20.8839
440.589
-7.52957
-417.983
65.3397
38.7706
417.651
-8.4264
-8.17801
-8.8042
-70.8395
-100.203
-14.6227
-14.6414
15.4959
13.7332
100.238
-28.2641
2.03129
-2.8215
28.2711
0.783245
-62.357
-5.13191
6.0786
-1.29326
62.3807
0.322838
-71.055
1.13963
-7.71194
8.81293
-2.22904
71.0435
-326.357
2.86118
-10.4954
46.1869
-9.99548
326.158
1.54097
2.84057
1.17184
-11.7235
-10.4989
-11.6883
-82.2624
-0.930849
-11.8512
12.9057
-0.109756
82.2484
2.74937
-56.2901
-350.287
56.5589
-11.5122
350.183
2.98561
2.87084
2.74133
343.459
10.0311
1879.16
-2.51923
-2.81802
-1.75075
-2.57603
341.308
19.7216
1872.76
-3.93987
-4.53606
-3.87874
-4.94631
340.287
34.1033
1862.72
-6.76298
-9.29732
-7.21363
-9.45237
339.808
51.8305
1873.66
-12.1944
-14.1519
-12.075
-12.9333
332.432
74.4187
1874.85
-16.6613
-18.1785
-15.286
-17.1443
323.337
115.162
1841.91
-24.0543
-29.4887
-23.2118
-29.2503
77.8327
195.738
1791.94
82.8065
77.8736
82.1873
-42.8368
-53.5771
-42.5532
-53.283
-432.361
-76.6078
76.4362
432.441
20.4423
18.6897
20.1253
18.6668
-45.7472
-6.29488
45.6615
8.42088
-2.04025
20.6159
-50.8245
-345.53
55.0711
-24.4833
345.151
15.2971
-372.755
-59.7516
63.5809
-18.6144
372.243
13.8949
-65.8948
-385.949
67.7067
-15.3162
385.559
75.3441
-50.004
1636.53
11.0152
11.2881
11.2375
11.4173
-70.6655
-79.5226
-70.6765
-79.5176
78.2502
75.2993
78.1504
9.88349
-406.775
74.8922
-9.25668
406.6
-41.1313
1640.8
11.7097
9.26174
11.6795
8.37492
-75.2911
-80.0714
-75.3069
-80.5187
349.432
9.76883
1911.56
348.501
20.6394
1911.72
347.862
34.6857
1905.13
346.983
52.4477
1907.95
344.167
76.8648
1905.15
343.895
115.23
1885.62
87.9283
185.44
1849.78
90.4032
87.102
89.3732
-73.3063
-461.771
91.3657
68.7878
462.852
-107.869
-26.1113
-25.0286
27.1593
24.2696
107.58
-82.3315
-27.4246
22.2407
5.40779
82.3849
-0.27728
0.540456
-4.80046
-85.396
85.2039
20.9803
-4.43816
0.582439
0.702134
1.12624
-4.79947
-4.78717
-4.91422
375.539
-110.057
1660.96
-89.2521
-97.5766
-89.4901
-97.9677
27.1725
26.7097
27.5326
28.2086
371.658
-90.6065
1725.61
24.1982
22.4206
26.004
24.1786
370.35
-74.2188
1776.67
18.9958
17.5026
20.74
19.333
369.432
-61.4466
1787.57
14.9115
13.2235
17.0243
17.1467
366.735
-47.2437
1791.97
365.369
-45.1626
1800.95
11.5892
11.2062
10.8801
13.0745
-38.7072
1785.78
354.549
9.2607
1939.97
354.361
20.6901
1942.01
354.332
34.481
1936.56
354.425
51.9973
1937.63
354.995
75.8289
1934.55
359.287
110.456
1917.62
381.11
163.334
1894.53
106.91
219.867
1930.64
-66.5581
-69.3077
-61.1278
-68.4444
105.971
107.045
106.909
-69.6245
-478.458
114.8
61.9757
478.217
-32.6297
-451.278
-118.669
117.928
33.6044
451.044
-3.23916
-434.422
120.264
10.8334
434.28
-1.97409
-3.99333
-2.60694
-119.142
2.66695
-119.985
-443.254
116.218
-8.80702
443.361
3.20923
3.04237
3.54801
424.876
-115.064
1854.13
31.6651
41.2086
31.2566
40.0328
-112.485
-114.524
-112.355
-113.872
408.448
-89.6722
1815.03
404.124
-84.0085
1831.68
398.495
-68.2733
1877.25
394.55
-57.9015
1879.7
392.357
-45.3906
1882.96
389.74
-42.6361
1891.57
-36.9218
1877.55
358.938
8.58905
1964.38
359.236
20.1091
1967.08
359.838
33.5392
1962.21
361.059
50.3489
1962.61
363.811
72.5636
1958.82
370.505
103.236
1938.96
391.159
142.197
1925.57
428.534
181.948
1945.75
460.338
159.265
1939.31
-54.9758
-41.5147
-54.1628
-40.6491
474.798
104.731
1890.33
-32.6145
-26.8319
-31.9754
-27.1925
473.185
22.9602
1895.47
-9.55821
-0.528728
-10.1132
-0.425328
459.526
-11.1788
1889.26
6.28675
6.96159
5.99055
6.95752
433.945
-93.031
1932.59
420.406
-74.2747
1898.04
413.799
-74.5193
1890.11
407.762
-62.2172
1924.69
403.226
-53.8636
1925.94
400.459
-43.0734
1929.65
397.81
-40.3199
1938.59
-35.3745
1927.71
362.773
7.85726
1985.53
363.421
19.1622
1988.32
364.602
31.9901
1983.86
366.749
47.7512
1983.86
370.932
67.8647
1978.28
378.224
95.5447
1952.27
397.838
121.988
1957.98
427.83
151.331
1971.25
453.833
133.012
1970.44
468.923
89.7036
1937.49
466.916
25.1866
1948.23
457.441
-1.82983
1934.75
437.068
-76.9185
1972.31
424.604
-61.5624
1941.52
418.06
-65.0252
1923.74
411.703
-56.0259
1954.59
406.855
-49.442
1955.34
403.731
-40.4593
1959.4
400.991
-38.0036
1967.74
-33.6396
1958.83
366.167
7.08782
2004.16
367.087
17.8931
2006.78
368.748
29.9154
2002.66
371.61
44.4457
2002.37
376.667
62.3338
1995.7
385.269
86.4935
1969.48
402.169
104.359
1990.71
426.894
126.111
1991.87
448.653
110.981
1995.36
461.948
76.2821
1970.69
462.143
25.0008
1981.65
455.426
4.54057
1968.17
438.191
-64.1424
2001.3
426.362
-50.9373
1975.5
420.437
-56.3274
1952.67
414.291
-50.0551
1979.61
409.406
-44.9746
1979.82
406.073
-37.6474
1984.02
403.066
-35.4121
1991.5
-31.6626
1983.47
369.191
6.28557
2020.7
370.334
16.4031
2023.11
372.388
27.4753
2019.31
375.793
40.6052
2018.95
381.398
56.2501
2012.46
390.888
76.5646
1988.83
405.235
89.4218
2014.42
425.991
104.938
2010.9
444.237
92.3901
2016.39
455.873
64.3633
1996.4
456.654
23.9758
2007.34
452.582
8.28791
1994.6
420.028
-35.2045
1971.07
427.936
-61.9939
1967.06
422.41
-48.3862
1978.01
416.434
-44.1681
2001.01
411.388
-40.3688
2000.76
407.849
-34.5117
2004.52
404.624
-32.5796
2011.27
-29.406
2004.13
371.927
5.54255
2035.62
373.251
14.7687
2037.81
375.609
24.7757
2034.34
379.412
36.4233
2033.97
385.36
49.9201
2028.28
395.181
66.3709
2008.58
407.789
76.326
2032.19
425.626
86.7195
2031.24
440.653
77.0184
2033.66
450.689
54.011
2017.14
452.484
21.9071
2027.34
460.486
-0.633353
2041.42
441.562
-18.1461
2049.88
428.721
-52.1374
2041.46
423.75
-41.1614
1999.53
417.992
-38.4931
2019.64
413.01
-35.7707
2019.1
409.364
-31.1571
2022.35
405.968
-29.4984
2028.45
-26.8318
2022.08
374.434
4.76574
2049.3
375.901
13.0552
2051.19
378.496
21.9259
2048.07
382.569
32.0615
2047.78
388.695
43.4802
2043.18
398.521
56.2258
2028.06
409.863
64.5745
2047.11
424.974
71.1438
2050.75
437.851
63.854
2045.68
446.683
44.904
2034.08
448.753
19.5361
2043.87
454.318
-6.22745
2054.18
440.751
-4.98232
2056.27
429.409
-43.4448
2056.99
424.838
-34.6297
2018.94
419.431
-33.0825
2035.62
414.517
-31.1804
2035.5
410.727
-27.6141
2038.33
407.157
-26.2485
2043.79
-24.0468
2038.09
376.741
4.06321
2061.86
378.331
11.2768
2063.51
381.096
18.9422
2060.81
385.358
27.5511
2060.54
391.497
37.0753
2056.34
400.537
46.9001
2044.27
411.114
53.6664
2057.57
424.146
57.7443
2065.08
435.635
52.21
2054.58
443.479
36.7797
2048.72
445.867
16.8808
2058.2
443.466
-4.11754
2050.1
440.269
-2.50679
2051.48
430.015
-35.4758
2070.65
425.252
-28.2725
2037.46
420.619
-27.9535
2047.81
415.809
-26.647
2050.11
411.838
-23.8974
2052.91
408.149
-22.7978
2057.6
-21.0128
2052.63
378.9
3.36096
2073.63
380.567
9.41937
2075.03
383.463
15.8355
2072.7
387.84
22.9809
2072.09
393.782
30.9488
2066.34
402.285
38.2007
2059.63
412.303
43.435
2068.71
423.745
46.0284
2076.84
434.171
41.6387
2065.6
441.146
29.5857
2062.87
443.703
14.1456
2071.06
441.949
-2.71802
2063.91
439.707
-0.925858
2066.51
430.381
-28.0714
2083.24
424.314
-20.9999
2053.65
421.543
-23.8888
2055.19
417.019
-22.1352
2062.94
412.991
-20.058
2066.23
409.198
-19.1945
2070.35
-17.7721
2066.01
380.922
2.67617
2084.67
382.651
7.57035
2085.81
385.636
12.6958
2083.83
390.052
18.3952
2082.43
395.639
25.2332
2073.87
403.986
29.6594
2075.29
413.505
33.7331
2080.88
423.793
35.5536
2087.32
433.195
32.0596
2077.32
439.566
23.0232
2075.77
442.17
11.3923
2082.6
440.989
-1.83984
2076.79
439.582
-0.0781617
2080.06
431.403
-21.6446
2095.39
426.317
-15.7393
2075.21
422.542
-18.9364
2070.04
418.186
-17.6561
2075.37
414.114
-16.1407
2078.67
410.243
-15.4792
2082.13
-14.4025
2078.5
382.822
1.98315
2095.1
384.593
5.67206
2095.98
387.646
9.5471
2094.37
392.131
13.812
2092.73
398.203
19.0536
2085.39
405.946
21.7576
2092.27
414.717
24.8148
2093.34
424.275
25.8359
2096.96
432.741
23.4374
2088.72
438.857
16.767
2087.65
441.772
8.37535
2093.03
440.585
-0.901137
2088.66
439.766
0.394132
2092.5
432.467
-15.813
2105.43
427.827
-11.452
2090.62
423.746
-14.0641
2083.85
419.373
-13.2201
2087.69
415.269
-12.1756
2090.49
411.367
-11.6978
2093.08
-10.9003
2090.31
384.621
1.307
2105
386.415
3.80238
2105.61
389.518
6.38928
2104.44
394.042
9.20717
2103.3
400.527
12.475
2098.97
407.665
14.4925
2104.98
416.002
16.374
2103.91
424.839
16.8935
2105.76
432.839
15.3161
2099.5
438.431
11.0534
2098.62
441.252
5.46316
2102.51
440.742
-0.54766
2099.63
440.39
0.470142
2104.23
433.747
-10.3727
2114.05
429.282
-7.5253
2102.74
425.071
-9.29677
2097.06
420.683
-8.80273
2099.6
416.568
-8.13013
2101.58
412.621
-7.82039
2103.45
-7.31951
2101.53
386.324
0.665998
2114.42
388.153
1.9063
2114.79
391.268
3.19714
2114.11
395.796
4.57964
2113.46
402.032
6.13436
2110.97
409.179
7.2622
2114.01
417.339
8.11096
2113.34
425.723
8.40473
2113.92
433.452
7.50276
2109.65
438.912
5.50813
2108.91
441.548
2.77318
2111.31
441.297
-0.35989
2109.8
441.192
0.310595
2115.23
435.166
-5.1376
2121.93
430.788
-3.73229
2113.58
426.323
-4.60512
2109.76
421.983
-4.41255
2110.87
417.857
-4.09293
2112.07
413.888
-3.92194
2113.18
-3.6727
2112.07
387.935
2123.36
389.754
2123.34
392.876
2123
397.392
2122.68
403.462
2121.9
410.64
2122.62
418.665
2121.77
426.977
2120.8
434.401
2118.4
439.807
2117.71
442.502
2118.59
442.092
2118.4
442.229
2124.46
436.598
2127.93
432.344
2122.32
427.579
2120.44
423.166
2119.95
419.017
2120.22
415.022
2120.52
2120.17