/*--------------------------------*- C++ -*----------------------------------*\
  =========                 |
  \\      /  F ield         | OpenFOAM: The Open Source CFD Toolbox
   \\    /   O peration     | Website:  https://openfoam.org
    \\  /    A nd           | Version:  10
     \\/     M anipulation  |
\*---------------------------------------------------------------------------*/
FoamFile
{
    format      ascii;
    class       volScalarField;
    location    "2000";
    object      nut;
}
// * * * * * * * * * * * * * * * * * * * * * * * * * * * * * * * * * * * * * //

dimensions      [0 2 -1 0 0 0 0];

internalField   nonuniform List<scalar> 
52338
(
0.132479
0.092642
0.0789363
0.0936428
0.121223
0.165215
0.133929
0.132469
0.13146
0.129776
0.126056
0.128446
0.175943
0.159399
0.407335
0.613877
0.781795
0.85797
0.949141
0.880787
0.133108
0.131784
0.130857
0.130319
0.130243
0.132444
0.163355
0.201199
0.184331
0.608698
0.598203
0.649761
0.616886
0.637547
0.640872
0.132998
0.131551
0.130462
0.129754
0.129567
0.13072
0.146182
0.183674
0.182301
0.11848
0.244936
0.278626
0.244497
0.242147
0.239812
0.243846
0.251356
0.257275
0.132932
0.131398
0.130189
0.129317
0.1289
0.129464
0.136128
0.159464
0.182758
0.183546
0.180587
0.182311
0.18071
0.174534
0.172913
0.171625
0.17098
0.170863
0.170973
0.171035
0.132895
0.131307
0.13002
0.12903
0.12842
0.128492
0.131272
0.142899
0.154474
0.160846
0.162681
0.162886
0.16098
0.15831
0.15658
0.155293
0.154362
0.153649
0.152991
0.152328
0.132873
0.131252
0.129915
0.128847
0.128095
0.12784
0.128849
0.133894
0.140168
0.144753
0.146374
0.146538
0.145526
0.144549
0.143251
0.142534
0.141873
0.141279
0.140718
0.140184
0.132861
0.131218
0.129847
0.128726
0.127878
0.1274
0.127613
0.129514
0.132289
0.13464
0.135734
0.136048
0.135618
0.135119
0.134389
0.1339
0.13344
0.133014
0.132626
0.132256
0.132854
0.131197
0.129803
0.128643
0.127728
0.127108
0.12692
0.127496
0.128535
0.129497
0.12999
0.130097
0.129817
0.129447
0.128988
0.128657
0.128339
0.128026
0.127743
0.127467
0.13285
0.131184
0.129773
0.128586
0.127622
0.126908
0.126496
0.126497
0.126738
0.126977
0.127048
0.126963
0.126698
0.126397
0.126046
0.125755
0.125474
0.125193
0.124939
0.124683
0.132848
0.131176
0.129753
0.128546
0.127547
0.126765
0.12622
0.125936
0.1258
0.125679
0.125493
0.125237
0.124946
0.12462
0.124283
0.123993
0.123721
0.123453
0.12321
0.122958
0.132848
0.131171
0.129739
0.128518
0.127493
0.126665
0.126031
0.125588
0.125254
0.124938
0.124602
0.124235
0.123882
0.123539
0.123207
0.122909
0.12263
0.122353
0.122102
0.121838
0.132849
0.131169
0.129729
0.128498
0.127454
0.126593
0.125899
0.125358
0.124907
0.124475
0.124042
0.12361
0.123211
0.122838
0.122489
0.122172
0.121877
0.121589
0.121328
0.121054
0.132851
0.131169
0.129726
0.128485
0.127429
0.126538
0.125804
0.1252
0.124673
0.124171
0.123666
0.123187
0.12275
0.122352
0.121996
0.121655
0.121349
0.121052
0.120781
0.120496
0.132853
0.131171
0.129724
0.128476
0.127408
0.126499
0.125735
0.125093
0.124515
0.123965
0.123414
0.122904
0.12244
0.122021
0.121645
0.121296
0.120976
0.120667
0.120386
0.120093
0.132855
0.131173
0.129724
0.128471
0.127392
0.126471
0.125686
0.125014
0.124406
0.123821
0.123256
0.122722
0.122238
0.121802
0.121411
0.121048
0.120716
0.120395
0.120104
0.119801
0.132857
0.131175
0.129723
0.128465
0.127378
0.126444
0.125644
0.12495
0.12432
0.123715
0.123126
0.122572
0.122067
0.121608
0.12119
0.120799
0.120437
0.120085
0.119762
0.119426
0.13284
0.131136
0.129657
0.128367
0.127242
0.126265
0.125417
0.124673
0.123986
0.123323
0.122671
0.122057
0.121485
0.120961
0.120478
0.120024
0.119596
0.119179
0.118789
0.118388
0.133452
0.106936
0.0851349
0.0888476
0.124134
0.165626
0.133927
0.132492
0.131529
0.13009
0.126807
0.127675
0.167043
0.175013
0.405044
0.611388
0.779067
0.86581
0.94724
0.880478
0.133107
0.131782
0.130855
0.130318
0.130247
0.132335
0.160314
0.182864
0.207058
0.60598
0.603843
0.651753
0.618837
0.638387
0.641622
0.132998
0.13155
0.130461
0.129753
0.129568
0.130733
0.14545
0.174194
0.179103
0.126891
0.223612
0.239563
0.243594
0.243045
0.24102
0.244832
0.251973
0.257647
0.132932
0.131397
0.130188
0.129316
0.1289
0.129461
0.135977
0.15845
0.17912
0.181984
0.18168
0.182881
0.17815
0.175263
0.173577
0.172071
0.17113
0.170802
0.170828
0.170907
0.132895
0.131306
0.130019
0.12903
0.12842
0.128486
0.131235
0.142762
0.154436
0.161112
0.163033
0.162987
0.160738
0.158307
0.156733
0.155372
0.154343
0.153582
0.152925
0.152293
0.132874
0.131252
0.129915
0.128847
0.128095
0.127836
0.128828
0.133861
0.140257
0.144941
0.146374
0.146518
0.14527
0.144157
0.142998
0.14243
0.14182
0.141249
0.140705
0.140187
0.132861
0.131218
0.129847
0.128726
0.127878
0.127399
0.127609
0.129517
0.132323
0.134692
0.135665
0.135959
0.13542
0.134869
0.134232
0.133849
0.133424
0.13301
0.132627
0.132262
0.132854
0.131197
0.129803
0.128643
0.127728
0.127108
0.126918
0.127497
0.128541
0.129502
0.129939
0.130035
0.12976
0.129365
0.128926
0.128639
0.128337
0.128028
0.127745
0.12747
0.132851
0.131184
0.129773
0.128586
0.127622
0.126908
0.126495
0.126497
0.126737
0.126975
0.127021
0.126901
0.126633
0.126342
0.126006
0.125744
0.125473
0.125194
0.124941
0.124685
0.132849
0.131176
0.129753
0.128546
0.127547
0.126765
0.126219
0.125936
0.125799
0.125677
0.125481
0.125213
0.124936
0.124599
0.124266
0.123989
0.123722
0.123454
0.12321
0.122958
0.132849
0.131171
0.129739
0.128518
0.127493
0.126665
0.126031
0.125588
0.125254
0.124938
0.124596
0.124226
0.123878
0.123527
0.123195
0.122906
0.122629
0.122353
0.122102
0.121838
0.13285
0.131169
0.12973
0.128498
0.127454
0.126592
0.1259
0.125358
0.124907
0.124475
0.124039
0.123605
0.123208
0.12283
0.122482
0.12217
0.121877
0.121589
0.121328
0.121053
0.132851
0.131169
0.129726
0.128485
0.127429
0.126539
0.125804
0.1252
0.124673
0.124171
0.123665
0.123185
0.122749
0.122348
0.121988
0.12165
0.121348
0.121051
0.120781
0.120496
0.132853
0.13117
0.129724
0.128476
0.127408
0.1265
0.125736
0.125093
0.124515
0.123965
0.123413
0.122902
0.122439
0.122019
0.12164
0.121292
0.120975
0.120667
0.120386
0.120093
0.132855
0.131173
0.129724
0.128471
0.127393
0.126471
0.125687
0.125014
0.124406
0.123822
0.123255
0.122721
0.122237
0.121801
0.121407
0.121045
0.120715
0.120395
0.120104
0.119801
0.132858
0.131175
0.129723
0.128465
0.127378
0.126444
0.125644
0.12495
0.12432
0.123715
0.123126
0.122571
0.122066
0.121606
0.121186
0.120796
0.120436
0.120085
0.119762
0.119426
0.132841
0.131136
0.129657
0.128367
0.127242
0.126265
0.125417
0.124673
0.123986
0.123323
0.12267
0.122056
0.121485
0.120961
0.120478
0.120024
0.119596
0.119179
0.118789
0.118388
0.133708
0.115018
0.0871136
0.0847486
0.118847
0.164222
0.133928
0.132511
0.131555
0.129949
0.1266
0.127261
0.162678
0.177086
0.401302
0.609282
0.776847
0.871031
0.946685
0.881011
0.133107
0.131782
0.130854
0.130315
0.130245
0.132221
0.157619
0.179023
0.203038
0.594487
0.605693
0.653359
0.620658
0.639733
0.641972
0.132998
0.13155
0.13046
0.129753
0.129571
0.130739
0.144822
0.169237
0.175928
0.125372
0.220625
0.234997
0.241353
0.242934
0.241786
0.245704
0.252625
0.258073
0.132932
0.131396
0.130187
0.129316
0.128901
0.129466
0.135932
0.157189
0.176317
0.178612
0.179936
0.183117
0.178931
0.176378
0.174297
0.172595
0.171401
0.17084
0.170738
0.170795
0.132895
0.131306
0.130019
0.12903
0.12842
0.128488
0.131262
0.142605
0.154163
0.161117
0.163305
0.163411
0.161129
0.158818
0.156942
0.155486
0.154367
0.153544
0.152866
0.152253
0.132874
0.131252
0.129914
0.128847
0.128095
0.127836
0.128843
0.13388
0.140317
0.145133
0.146562
0.146727
0.145426
0.144317
0.143139
0.142405
0.141779
0.141216
0.140687
0.140184
0.132862
0.131218
0.129847
0.128726
0.127878
0.1274
0.127613
0.129527
0.132369
0.134783
0.135719
0.135996
0.135445
0.134915
0.134279
0.133829
0.133409
0.133004
0.132627
0.132266
0.132854
0.131197
0.129802
0.128643
0.127728
0.127109
0.126919
0.127501
0.128555
0.129528
0.129946
0.130035
0.129771
0.129354
0.128952
0.128635
0.128334
0.128029
0.127747
0.127472
0.132851
0.131184
0.129773
0.128586
0.127622
0.126908
0.126495
0.126498
0.126741
0.126982
0.12702
0.126907
0.126652
0.126333
0.126016
0.125739
0.125471
0.125195
0.124942
0.124686
0.132849
0.131176
0.129753
0.128546
0.127547
0.126766
0.126219
0.125936
0.1258
0.125679
0.125479
0.125206
0.124935
0.124596
0.124275
0.12399
0.123722
0.123455
0.12321
0.122958
0.132849
0.131171
0.129739
0.128518
0.127493
0.126665
0.126031
0.125588
0.125254
0.124938
0.124595
0.124225
0.123879
0.123525
0.1232
0.122905
0.122629
0.122353
0.122102
0.121838
0.13285
0.131169
0.12973
0.128498
0.127454
0.126592
0.125899
0.125358
0.124907
0.124475
0.124039
0.123605
0.123209
0.122829
0.122485
0.122169
0.121877
0.121589
0.121328
0.121053
0.132851
0.131169
0.129726
0.128485
0.127429
0.126539
0.125804
0.1252
0.124674
0.124172
0.123664
0.123184
0.122749
0.122347
0.121988
0.121652
0.121348
0.121051
0.120781
0.120496
0.132853
0.13117
0.129724
0.128476
0.127408
0.1265
0.125736
0.125093
0.124515
0.123965
0.123413
0.122902
0.122439
0.122018
0.121641
0.121293
0.120975
0.120667
0.120386
0.120093
0.132856
0.131173
0.129724
0.128471
0.127393
0.126471
0.125687
0.125014
0.124406
0.123822
0.123255
0.122721
0.122237
0.1218
0.121408
0.121046
0.120715
0.120395
0.120104
0.119801
0.132858
0.131175
0.129723
0.128465
0.127378
0.126444
0.125644
0.12495
0.124321
0.123715
0.123126
0.122572
0.122066
0.121605
0.121187
0.120796
0.120436
0.120085
0.119762
0.119426
0.132841
0.131136
0.129657
0.128367
0.127242
0.126265
0.125417
0.124673
0.123986
0.123323
0.122671
0.122056
0.121485
0.120961
0.120478
0.120024
0.119596
0.119179
0.118789
0.118388
0.1338
0.121213
0.0907651
0.081812
0.117471
0.160785
0.133928
0.132525
0.131589
0.129882
0.126321
0.126902
0.160331
0.178437
0.396869
0.606627
0.774906
0.875034
0.948739
0.882598
0.133106
0.131781
0.130853
0.130311
0.130239
0.1321
0.155467
0.180979
0.205801
0.578968
0.601728
0.654692
0.622029
0.641152
0.64201
0.132998
0.131549
0.130459
0.129752
0.129572
0.13073
0.144066
0.166072
0.171732
0.122218
0.226659
0.231344
0.238559
0.241971
0.241998
0.246318
0.253203
0.258502
0.132932
0.131396
0.130187
0.129316
0.128902
0.129468
0.135797
0.155818
0.173698
0.175874
0.177251
0.182527
0.17957
0.177248
0.175007
0.173155
0.171759
0.170972
0.170707
0.170706
0.132895
0.131306
0.130019
0.12903
0.128421
0.128488
0.13126
0.142284
0.153602
0.160735
0.163331
0.163703
0.161473
0.15924
0.157198
0.155637
0.154427
0.153532
0.152818
0.152209
0.132874
0.131252
0.129914
0.128847
0.128095
0.127836
0.128852
0.13385
0.140272
0.145201
0.146711
0.146913
0.145579
0.144462
0.143267
0.142427
0.141757
0.141186
0.140663
0.140175
0.132862
0.131218
0.129847
0.128725
0.127878
0.1274
0.127615
0.129529
0.132388
0.134847
0.135778
0.136041
0.135475
0.13495
0.134316
0.133826
0.133397
0.132995
0.132623
0.132268
0.132855
0.131197
0.129802
0.128643
0.127728
0.127109
0.126919
0.127502
0.128564
0.12955
0.129959
0.13004
0.129779
0.129348
0.128965
0.128635
0.128332
0.128029
0.127748
0.127474
0.132851
0.131184
0.129773
0.128586
0.127622
0.126908
0.126495
0.126498
0.126743
0.126987
0.12702
0.126911
0.126666
0.126331
0.126021
0.125737
0.125469
0.125195
0.124943
0.124688
0.132849
0.131176
0.129753
0.128546
0.127547
0.126766
0.126219
0.125935
0.1258
0.125681
0.125479
0.125201
0.124933
0.124593
0.12428
0.123991
0.123723
0.123455
0.123211
0.122959
0.132849
0.131171
0.129739
0.128518
0.127493
0.126665
0.126031
0.125588
0.125254
0.124939
0.124595
0.124224
0.12388
0.123524
0.123203
0.122905
0.122629
0.122353
0.122102
0.121838
0.13285
0.131169
0.12973
0.128498
0.127454
0.126591
0.125899
0.125358
0.124907
0.124475
0.124039
0.123604
0.123209
0.122828
0.122487
0.122169
0.121876
0.121589
0.121328
0.121053
0.132851
0.131169
0.129726
0.128485
0.127428
0.126539
0.125804
0.1252
0.124674
0.124172
0.123664
0.123184
0.122749
0.122346
0.121988
0.121653
0.121348
0.121051
0.120781
0.120496
0.132853
0.131171
0.129724
0.128476
0.127408
0.126499
0.125735
0.125093
0.124515
0.123965
0.123413
0.122902
0.122439
0.122018
0.121641
0.121293
0.120975
0.120667
0.120386
0.120093
0.132856
0.131173
0.129723
0.128471
0.127393
0.126471
0.125687
0.125014
0.124406
0.123822
0.123255
0.122721
0.122237
0.1218
0.121408
0.121046
0.120715
0.120395
0.120104
0.1198
0.132858
0.131175
0.129723
0.128465
0.127378
0.126444
0.125644
0.12495
0.124321
0.123715
0.123126
0.122572
0.122067
0.121605
0.121187
0.120797
0.120435
0.120085
0.119762
0.119426
0.132841
0.131136
0.129657
0.128367
0.127242
0.126265
0.125417
0.124673
0.123986
0.123323
0.122671
0.122055
0.121484
0.120961
0.120478
0.120024
0.119596
0.119179
0.118789
0.118388
0.133831
0.125106
0.0952389
0.0800425
0.110075
0.161236
0.133928
0.132536
0.131628
0.129887
0.125985
0.126534
0.159728
0.186196
0.39351
0.602644
0.772895
0.878164
0.952827
0.88525
0.133106
0.131781
0.130852
0.130307
0.13023
0.131992
0.154079
0.183901
0.2235
0.563383
0.591822
0.654094
0.622875
0.642351
0.641839
0.132997
0.131549
0.130459
0.129751
0.129571
0.130715
0.143358
0.164586
0.168468
0.118586
0.240572
0.229402
0.236003
0.240503
0.241705
0.246619
0.253638
0.258891
0.132932
0.131396
0.130187
0.129315
0.128902
0.129467
0.135616
0.154607
0.171347
0.173424
0.17441
0.181082
0.179844
0.177881
0.175641
0.173711
0.172171
0.171183
0.170741
0.170649
0.132895
0.131306
0.130019
0.12903
0.128421
0.128488
0.131237
0.141889
0.152865
0.160045
0.163067
0.163799
0.161725
0.159593
0.157473
0.155818
0.15452
0.153548
0.152784
0.152165
0.132874
0.131252
0.129914
0.128847
0.128095
0.127836
0.128855
0.133782
0.140133
0.145133
0.146777
0.147053
0.14572
0.1446
0.143392
0.142478
0.141756
0.141163
0.140638
0.140159
0.132862
0.131218
0.129847
0.128725
0.127878
0.1274
0.127617
0.129522
0.132382
0.134875
0.135825
0.136087
0.135509
0.134984
0.13435
0.133833
0.133391
0.132986
0.132617
0.132266
0.132855
0.131197
0.129802
0.128643
0.127728
0.127109
0.126919
0.127502
0.128568
0.129563
0.129972
0.130047
0.129786
0.129347
0.128974
0.128637
0.128331
0.128028
0.127748
0.127475
0.132851
0.131184
0.129773
0.128586
0.127622
0.126909
0.126495
0.126498
0.126743
0.12699
0.127022
0.126914
0.126676
0.126333
0.126026
0.125737
0.125467
0.125194
0.124943
0.124688
0.132849
0.131176
0.129753
0.128546
0.127547
0.126767
0.126219
0.125935
0.1258
0.125681
0.125479
0.125197
0.12493
0.124591
0.124283
0.123993
0.123724
0.123456
0.123212
0.122959
0.132849
0.131171
0.129739
0.128518
0.127493
0.126665
0.126031
0.125587
0.125254
0.124939
0.124595
0.124223
0.123881
0.123524
0.123205
0.122906
0.122628
0.122353
0.122102
0.121838
0.13285
0.131169
0.129731
0.128498
0.127454
0.126591
0.125899
0.125358
0.124907
0.124476
0.124039
0.123604
0.123209
0.122828
0.122488
0.122169
0.121876
0.121589
0.121328
0.121053
0.132852
0.131169
0.129726
0.128485
0.127428
0.126538
0.125804
0.1252
0.124674
0.124172
0.123664
0.123184
0.122749
0.122346
0.121988
0.121654
0.121348
0.121051
0.12078
0.120496
0.132854
0.131171
0.129724
0.128476
0.127408
0.126499
0.125735
0.125093
0.124515
0.123965
0.123413
0.122902
0.122439
0.122017
0.121641
0.121294
0.120975
0.120666
0.120386
0.120092
0.132856
0.131173
0.129723
0.128471
0.127393
0.126471
0.125687
0.125014
0.124406
0.123822
0.123255
0.122721
0.122237
0.1218
0.121408
0.121046
0.120715
0.120395
0.120103
0.1198
0.132858
0.131175
0.129723
0.128465
0.127378
0.126444
0.125644
0.12495
0.124321
0.123715
0.123126
0.122572
0.122067
0.121605
0.121187
0.120797
0.120435
0.120085
0.119762
0.119426
0.132841
0.131136
0.129657
0.128366
0.127242
0.126265
0.125417
0.124673
0.123986
0.123323
0.122671
0.122055
0.121484
0.120961
0.120478
0.120024
0.119596
0.119179
0.118789
0.118388
0.133841
0.127186
0.099486
0.0794584
0.105888
0.162804
0.133928
0.132543
0.131667
0.129951
0.12564
0.126092
0.160517
0.200218
0.394822
0.597595
0.770221
0.880856
0.957738
0.888616
0.133106
0.131781
0.130852
0.130304
0.130218
0.131901
0.153458
0.18762
0.234941
0.549516
0.579242
0.649821
0.623171
0.6431
0.641406
0.132997
0.131549
0.130459
0.12975
0.12957
0.130697
0.142805
0.164212
0.165173
0.118122
0.250725
0.229016
0.234145
0.238893
0.24104
0.24662
0.253894
0.259177
0.132932
0.131396
0.130186
0.129315
0.128902
0.129465
0.135427
0.153659
0.169287
0.170737
0.171658
0.179091
0.179645
0.178224
0.176136
0.174217
0.172599
0.171455
0.17084
0.170632
0.132895
0.131306
0.130019
0.12903
0.128421
0.128488
0.131201
0.141494
0.152065
0.159154
0.162537
0.163667
0.161842
0.15986
0.157734
0.156016
0.154641
0.153592
0.15277
0.152125
0.132874
0.131252
0.129914
0.128847
0.128095
0.127836
0.128853
0.133691
0.139932
0.144951
0.146743
0.147129
0.145833
0.144726
0.143511
0.142546
0.141775
0.141151
0.140615
0.140139
0.132862
0.131218
0.129847
0.128725
0.127878
0.1274
0.127618
0.129509
0.132354
0.134868
0.135849
0.136124
0.135543
0.135017
0.134382
0.133846
0.133389
0.132979
0.132609
0.132261
0.132855
0.131197
0.129802
0.128643
0.127728
0.127109
0.126919
0.127501
0.128566
0.129569
0.129981
0.130054
0.129792
0.129348
0.12898
0.12864
0.12833
0.128026
0.127747
0.127474
0.132851
0.131184
0.129773
0.128586
0.127622
0.126909
0.126495
0.126498
0.126743
0.126992
0.127023
0.126916
0.126683
0.126336
0.126029
0.125738
0.125466
0.125193
0.124943
0.124689
0.132849
0.131176
0.129753
0.128546
0.127547
0.126767
0.126219
0.125935
0.125799
0.12568
0.125478
0.125195
0.124927
0.124588
0.124284
0.123994
0.123725
0.123457
0.123212
0.12296
0.132849
0.131171
0.129739
0.128518
0.127493
0.126665
0.126031
0.125587
0.125254
0.124939
0.124594
0.124222
0.12388
0.123524
0.123206
0.122906
0.122628
0.122353
0.122102
0.121838
0.13285
0.131169
0.129731
0.128498
0.127454
0.126591
0.125898
0.125357
0.124907
0.124475
0.124039
0.123604
0.123209
0.122827
0.122489
0.122169
0.121876
0.12159
0.121328
0.121053
0.132852
0.131169
0.129726
0.128485
0.127428
0.126538
0.125804
0.1252
0.124674
0.124172
0.123664
0.123183
0.122749
0.122346
0.121988
0.121654
0.121348
0.121051
0.120781
0.120496
0.132854
0.131171
0.129724
0.128476
0.127408
0.126499
0.125735
0.125093
0.124515
0.123965
0.123413
0.122902
0.122438
0.122017
0.121641
0.121294
0.120975
0.120666
0.120386
0.120092
0.132856
0.131173
0.129723
0.128471
0.127393
0.126471
0.125686
0.125014
0.124406
0.123822
0.123255
0.122721
0.122237
0.1218
0.121408
0.121047
0.120715
0.120395
0.120103
0.1198
0.132858
0.131175
0.129723
0.128465
0.127378
0.126444
0.125644
0.12495
0.124321
0.123715
0.123126
0.122572
0.122067
0.121605
0.121187
0.120797
0.120435
0.120085
0.119761
0.119426
0.132841
0.131136
0.129657
0.128366
0.127242
0.126265
0.125417
0.124673
0.123986
0.123324
0.122671
0.122055
0.121484
0.120961
0.120478
0.120024
0.119596
0.119179
0.118789
0.118388
0.133844
0.12818
0.102925
0.0800231
0.104194
0.163949
0.133928
0.132548
0.131701
0.130057
0.125339
0.125552
0.16212
0.214823
0.400478
0.592908
0.766376
0.8837
0.962674
0.892098
0.133106
0.131781
0.130853
0.130303
0.130205
0.131826
0.153509
0.192277
0.240387
0.540976
0.56858
0.641614
0.622986
0.64329
0.640736
0.132997
0.131549
0.130459
0.12975
0.129569
0.13068
0.142457
0.16467
0.165036
0.120231
0.25304
0.229033
0.232898
0.237368
0.240138
0.24637
0.253969
0.259348
0.132931
0.131396
0.130186
0.129315
0.128902
0.129462
0.135262
0.153001
0.167697
0.168077
0.168968
0.17686
0.178996
0.178233
0.176441
0.174631
0.173009
0.171764
0.170996
0.17066
0.132895
0.131306
0.130019
0.12903
0.128421
0.128487
0.13116
0.141144
0.15129
0.158169
0.161812
0.16332
0.161803
0.160021
0.157954
0.156214
0.154782
0.153663
0.152779
0.152097
0.132874
0.131252
0.129914
0.128846
0.128096
0.127835
0.128847
0.133592
0.139696
0.144688
0.146614
0.14713
0.145906
0.144831
0.143621
0.142623
0.14181
0.141153
0.140599
0.140119
0.132862
0.131218
0.129847
0.128725
0.127878
0.1274
0.127618
0.129491
0.132311
0.134833
0.13585
0.136147
0.13557
0.135048
0.134412
0.133863
0.133392
0.132975
0.132603
0.132255
0.132855
0.131197
0.129802
0.128643
0.127728
0.127109
0.126919
0.127499
0.128562
0.129568
0.129986
0.130059
0.129797
0.12935
0.128985
0.128644
0.12833
0.128025
0.127746
0.127474
0.132851
0.131184
0.129773
0.128586
0.127622
0.126909
0.126495
0.126498
0.126743
0.126992
0.127023
0.126916
0.126687
0.126339
0.126033
0.125739
0.125465
0.125193
0.124942
0.124689
0.132849
0.131176
0.129753
0.128546
0.127547
0.126767
0.126219
0.125935
0.125799
0.12568
0.125478
0.125192
0.124924
0.124586
0.124284
0.123995
0.123725
0.123457
0.123213
0.12296
0.132849
0.131171
0.129739
0.128518
0.127493
0.126665
0.126031
0.125587
0.125253
0.124938
0.124594
0.124221
0.12388
0.123523
0.123207
0.122907
0.122629
0.122353
0.122102
0.121838
0.13285
0.13117
0.129731
0.128498
0.127454
0.126591
0.125898
0.125357
0.124906
0.124475
0.124038
0.123603
0.123209
0.122827
0.122489
0.12217
0.121876
0.12159
0.121328
0.121054
0.132852
0.131169
0.129726
0.128485
0.127428
0.126538
0.125804
0.125199
0.124673
0.124172
0.123664
0.123183
0.122749
0.122345
0.121988
0.121655
0.121349
0.121051
0.120781
0.120496
0.132854
0.131171
0.129724
0.128476
0.127408
0.126499
0.125735
0.125093
0.124515
0.123965
0.123413
0.122902
0.122438
0.122017
0.121641
0.121294
0.120975
0.120667
0.120386
0.120092
0.132856
0.131173
0.129723
0.128471
0.127393
0.126471
0.125686
0.125014
0.124406
0.123822
0.123255
0.122721
0.122237
0.1218
0.121408
0.121047
0.120715
0.120395
0.120103
0.1198
0.132858
0.131175
0.129723
0.128465
0.127378
0.126444
0.125644
0.12495
0.12432
0.123715
0.123126
0.122572
0.122067
0.121605
0.121187
0.120797
0.120436
0.120085
0.119761
0.119426
0.132841
0.131136
0.129657
0.128366
0.127242
0.126265
0.125417
0.124673
0.123986
0.123324
0.122671
0.122055
0.121484
0.120961
0.120478
0.120024
0.119596
0.119179
0.118789
0.118388
0.133845
0.128619
0.105365
0.0812719
0.104508
0.164206
0.133928
0.132552
0.131731
0.130187
0.125126
0.124948
0.163921
0.225282
0.402161
0.590434
0.761402
0.886919
0.967476
0.895217
0.133106
0.131781
0.130853
0.130302
0.130192
0.131759
0.154068
0.197828
0.246153
0.538922
0.561893
0.631579
0.622484
0.642972
0.639837
0.132997
0.131549
0.130459
0.12975
0.129567
0.130664
0.142321
0.165847
0.167632
0.12357
0.253017
0.228742
0.231958
0.235991
0.239104
0.24593
0.253882
0.259395
0.132931
0.131395
0.130186
0.129315
0.128902
0.129459
0.135139
0.152657
0.166769
0.166014
0.166409
0.174549
0.177985
0.177906
0.176517
0.174914
0.173364
0.172082
0.171195
0.170732
0.132895
0.131306
0.130019
0.129029
0.128421
0.128487
0.131121
0.140869
0.150614
0.157191
0.160975
0.162796
0.161608
0.160064
0.158109
0.156392
0.15493
0.153755
0.15281
0.152084
0.132874
0.131252
0.129914
0.128846
0.128096
0.127835
0.12884
0.133497
0.139451
0.144376
0.14641
0.147056
0.145927
0.144907
0.143716
0.142703
0.141857
0.141167
0.140592
0.140101
0.132862
0.131218
0.129847
0.128725
0.127878
0.1274
0.127617
0.129471
0.132257
0.134775
0.135827
0.136153
0.135588
0.135074
0.13444
0.133883
0.1334
0.132973
0.132597
0.132249
0.132855
0.131197
0.129802
0.128643
0.127728
0.127109
0.126919
0.127496
0.128554
0.129563
0.129987
0.130061
0.129801
0.129352
0.128989
0.128647
0.128331
0.128024
0.127745
0.127472
0.132851
0.131184
0.129773
0.128586
0.127622
0.126909
0.126495
0.126497
0.126742
0.126991
0.127023
0.126916
0.126689
0.126341
0.126036
0.125741
0.125465
0.125192
0.124942
0.124689
0.132849
0.131176
0.129753
0.128546
0.127547
0.126767
0.126219
0.125935
0.125799
0.125679
0.125477
0.12519
0.124921
0.124583
0.124283
0.123995
0.123726
0.123458
0.123213
0.12296
0.132849
0.131171
0.129739
0.128518
0.127493
0.126665
0.126031
0.125587
0.125253
0.124938
0.124594
0.12422
0.123879
0.123522
0.123207
0.122908
0.122629
0.122354
0.122103
0.121838
0.13285
0.13117
0.129731
0.128498
0.127454
0.126591
0.125898
0.125357
0.124906
0.124475
0.124038
0.123603
0.123208
0.122826
0.122489
0.12217
0.121877
0.12159
0.121329
0.121054
0.132852
0.13117
0.129726
0.128485
0.127428
0.126538
0.125804
0.125199
0.124673
0.124171
0.123664
0.123183
0.122748
0.122345
0.121988
0.121655
0.121349
0.121051
0.120781
0.120496
0.132854
0.131171
0.129724
0.128476
0.127408
0.126499
0.125735
0.125093
0.124515
0.123965
0.123413
0.122902
0.122438
0.122017
0.121641
0.121294
0.120975
0.120667
0.120386
0.120092
0.132856
0.131173
0.129723
0.128471
0.127393
0.126471
0.125686
0.125014
0.124406
0.123822
0.123255
0.122721
0.122237
0.1218
0.121408
0.121047
0.120715
0.120395
0.120103
0.1198
0.132858
0.131175
0.129723
0.128465
0.127378
0.126444
0.125644
0.12495
0.12432
0.123715
0.123126
0.122572
0.122067
0.121605
0.121187
0.120797
0.120436
0.120085
0.119761
0.119426
0.132841
0.131136
0.129657
0.128366
0.127242
0.126265
0.125417
0.124673
0.123986
0.123324
0.122671
0.122055
0.121484
0.120961
0.120478
0.120024
0.119596
0.119179
0.118789
0.118388
0.133845
0.128802
0.106909
0.0827938
0.106394
0.164303
0.133928
0.132555
0.131754
0.130325
0.125042
0.124354
0.165458
0.233194
0.403794
0.591451
0.756141
0.890176
0.972192
0.897708
0.133106
0.131781
0.130854
0.130303
0.130181
0.131697
0.154933
0.203895
0.251669
0.542781
0.559725
0.622256
0.621885
0.642311
0.638756
0.132997
0.131548
0.130459
0.129749
0.129565
0.130648
0.142365
0.167616
0.171656
0.127717
0.255788
0.228511
0.231257
0.234793
0.238015
0.245354
0.253665
0.259326
0.132931
0.131395
0.130186
0.129314
0.128901
0.129456
0.135068
0.152649
0.166646
0.164894
0.164371
0.172188
0.176715
0.177286
0.176356
0.175036
0.173631
0.172379
0.171419
0.170843
0.132895
0.131306
0.130018
0.129029
0.128421
0.128486
0.131088
0.140692
0.150097
0.156313
0.160109
0.162152
0.161273
0.159986
0.158186
0.156534
0.155073
0.15386
0.152863
0.152087
0.132874
0.131252
0.129914
0.128846
0.128096
0.127835
0.128832
0.133415
0.139222
0.144047
0.146154
0.146917
0.145895
0.144945
0.14379
0.142778
0.14191
0.141193
0.140594
0.140089
0.132862
0.131218
0.129847
0.128725
0.127878
0.1274
0.127616
0.12945
0.132198
0.134701
0.135784
0.136143
0.135595
0.135093
0.134464
0.133903
0.13341
0.132975
0.132593
0.132243
0.132855
0.131197
0.129802
0.128643
0.127728
0.127109
0.126919
0.127493
0.128545
0.129552
0.129983
0.130061
0.129803
0.129354
0.128992
0.12865
0.128332
0.128024
0.127744
0.127471
0.132851
0.131184
0.129773
0.128586
0.127622
0.126909
0.126495
0.126497
0.126741
0.12699
0.127023
0.126915
0.12669
0.126343
0.126038
0.125743
0.125466
0.125191
0.124942
0.124688
0.132849
0.131176
0.129753
0.128546
0.127547
0.126767
0.126219
0.125935
0.125799
0.125679
0.125477
0.125189
0.124919
0.12458
0.124281
0.123995
0.123726
0.123458
0.123214
0.122961
0.132849
0.131171
0.129739
0.128518
0.127493
0.126665
0.126031
0.125587
0.125253
0.124937
0.124593
0.12422
0.123878
0.123522
0.123207
0.122908
0.122629
0.122354
0.122103
0.121838
0.13285
0.13117
0.129731
0.128498
0.127455
0.126591
0.125898
0.125357
0.124906
0.124475
0.124038
0.123603
0.123208
0.122826
0.122489
0.12217
0.121877
0.12159
0.121329
0.121054
0.132852
0.13117
0.129726
0.128485
0.127428
0.126538
0.125804
0.125199
0.124673
0.124171
0.123664
0.123183
0.122748
0.122345
0.121988
0.121655
0.121349
0.121051
0.120781
0.120496
0.132854
0.131171
0.129724
0.128476
0.127408
0.126499
0.125735
0.125093
0.124515
0.123965
0.123413
0.122902
0.122438
0.122016
0.121641
0.121294
0.120975
0.120667
0.120386
0.120093
0.132856
0.131173
0.129724
0.128471
0.127393
0.126471
0.125686
0.125014
0.124406
0.123822
0.123255
0.122721
0.122237
0.121799
0.121408
0.121047
0.120715
0.120395
0.120103
0.1198
0.132858
0.131175
0.129723
0.128465
0.127378
0.126444
0.125644
0.12495
0.12432
0.123715
0.123126
0.122572
0.122067
0.121605
0.121187
0.120798
0.120436
0.120085
0.119761
0.119426
0.132841
0.131136
0.129657
0.128367
0.127242
0.126265
0.125417
0.124673
0.123986
0.123324
0.122671
0.122055
0.121483
0.12096
0.120477
0.120023
0.119596
0.119179
0.118789
0.118389
0.133845
0.128873
0.107801
0.0842234
0.109155
0.165109
0.133928
0.132556
0.131773
0.130458
0.1251
0.123859
0.166525
0.238231
0.408311
0.595832
0.752056
0.892533
0.977239
0.899445
0.133106
0.131782
0.130855
0.130304
0.130173
0.13164
0.155904
0.209872
0.255752
0.550784
0.561316
0.615915
0.621391
0.641536
0.637631
0.132997
0.131548
0.130459
0.129749
0.129564
0.130633
0.142539
0.169781
0.176357
0.132105
0.260411
0.228901
0.230949
0.233855
0.236957
0.244691
0.253352
0.259165
0.132931
0.131395
0.130186
0.129314
0.128901
0.129453
0.135044
0.152969
0.167371
0.164848
0.163247
0.17
0.175259
0.176433
0.175975
0.174984
0.173785
0.172626
0.171644
0.170981
0.132895
0.131306
0.130018
0.129029
0.128421
0.128485
0.131064
0.140627
0.149784
0.155624
0.159296
0.161452
0.160829
0.159794
0.158176
0.156624
0.155197
0.15397
0.152931
0.152108
0.132874
0.131252
0.129914
0.128846
0.128095
0.127835
0.128825
0.133355
0.139032
0.143733
0.145871
0.14673
0.145813
0.144944
0.143838
0.142843
0.141965
0.141226
0.140605
0.140082
0.132862
0.131218
0.129847
0.128725
0.127878
0.1274
0.127615
0.129431
0.132139
0.134617
0.135725
0.136116
0.13559
0.135103
0.134484
0.133923
0.133423
0.13298
0.132592
0.132237
0.132855
0.131197
0.129802
0.128643
0.127728
0.127109
0.126919
0.127489
0.128533
0.129538
0.129975
0.130059
0.129803
0.129355
0.128994
0.128653
0.128334
0.128024
0.127743
0.12747
0.132851
0.131184
0.129773
0.128586
0.127622
0.126909
0.126495
0.126497
0.126739
0.126989
0.127023
0.126914
0.126691
0.126344
0.12604
0.125744
0.125466
0.125191
0.124941
0.124688
0.132849
0.131176
0.129753
0.128546
0.127547
0.126767
0.126219
0.125935
0.125799
0.125679
0.125476
0.125188
0.124917
0.124577
0.12428
0.123994
0.123725
0.123458
0.123214
0.122961
0.132849
0.131171
0.129739
0.128518
0.127493
0.126665
0.126031
0.125587
0.125253
0.124937
0.124593
0.124219
0.123877
0.123521
0.123207
0.122908
0.12263
0.122354
0.122103
0.121839
0.13285
0.13117
0.129731
0.128498
0.127455
0.126591
0.125898
0.125357
0.124906
0.124474
0.124038
0.123602
0.123208
0.122825
0.122488
0.12217
0.121877
0.12159
0.121329
0.121054
0.132852
0.13117
0.129726
0.128485
0.127428
0.126538
0.125804
0.125199
0.124673
0.124171
0.123664
0.123183
0.122748
0.122344
0.121987
0.121655
0.121349
0.121052
0.120781
0.120496
0.132854
0.131171
0.129724
0.128476
0.127408
0.126499
0.125735
0.125093
0.124515
0.123965
0.123413
0.122901
0.122438
0.122016
0.121641
0.121294
0.120975
0.120667
0.120387
0.120093
0.132856
0.131173
0.129724
0.128471
0.127393
0.126471
0.125686
0.125014
0.124406
0.123822
0.123255
0.122721
0.122237
0.121799
0.121408
0.121047
0.120715
0.120395
0.120103
0.1198