/*--------------------------------*- C++ -*----------------------------------*\
  =========                 |
  \\      /  F ield         | OpenFOAM: The Open Source CFD Toolbox
   \\    /   O peration     | Website:  https://openfoam.org
    \\  /    A nd           | Version:  10
     \\/     M anipulation  |
\*---------------------------------------------------------------------------*/
FoamFile
{
    format      ascii;
    class       volScalarField;
    location    "2000";
    object      k;
}
// * * * * * * * * * * * * * * * * * * * * * * * * * * * * * * * * * * * * * //

dimensions      [0 2 -2 0 0 0 0];

internalField   nonuniform List<scalar> 
8643
(
2.24312
2.28469
2.07869
2.03331
2.04958
2.00839
2.48337
2.06643
2.07094
2.00963
1.99129
1.95469
1.91718
2.42866
2.03743
2.00834
1.99353
1.95606
1.92152
1.87535
1.84814
2.27019
2.21533
2.15038
1.92173
1.92393
1.9175
1.88515
1.84911
1.8042
1.7781
2.02116
2.01979
1.95414
1.8483
1.84251
1.83763
1.81028
1.77419
1.73234
1.70605
2.24312
2.28469
2.07845
2.03313
2.04956
2.0085
2.41464
2.06772
2.07117
2.00973
1.99151
1.95485
1.9173
2.38102
1.96227
2.00875
1.99378
1.95626
1.92169
1.8755
1.84824
2.20918
2.19345
2.05305
1.91609
1.92459
1.91769
1.88529
1.84923
1.80431
1.77818
2.01928
2.01512
1.94809
1.84544
1.84322
1.83776
1.81039
1.77428
1.73243
1.70613
2.24296
2.28444
2.07803
2.03291
2.04935
2.00846
2.2816
2.06794
2.07129
2.00974
1.99162
1.95492
1.91738
2.3423
1.95825
2.00897
1.99398
1.95643
1.92184
1.87563
1.84834
2.18841
2.17306
2.05035
1.91401
1.92492
1.91787
1.88544
1.84936
1.80442
1.77828
2.01849
2.01331
1.94655
1.84588
1.84349
1.83791
1.81052
1.77441
1.73253
1.70622
2.24314
2.28429
2.07785
2.03277
2.04921
2.00838
2.24078
2.06735
2.07135
2.00971
1.99166
1.95493
1.91742
2.31369
1.95376
2.00894
1.9941
1.95651
1.92193
1.87571
1.84841
2.17263
2.15562
2.04755
1.9119
1.92507
1.91801
1.88555
1.84946
1.80451
1.77835
2.01711
2.01178
1.94513
1.84613
1.84367
1.83802
1.81063
1.77451
1.73262
1.7063
2.24369
2.28433
2.07783
2.03265
2.04912
2.00832
2.24601
2.06612
2.07137
2.00967
1.99167
1.95491
1.91743
2.30477
1.9493
2.00873
1.99416
1.95656
1.92199
1.87575
1.84845
2.16301
2.14089
2.04456
1.90964
1.92508
1.91809
1.88561
1.84953
1.80457
1.77841
2.01531
2.01
1.94365
1.8461
1.84379
1.8381
1.8107
1.77457
1.73268
1.70636
2.24426
2.28447
2.07789
2.03254
2.04906
2.00828
2.26756
2.06451
2.07137
2.00963
1.99166
1.95489
1.91744
1.94562
2.00837
1.99419
1.95659
1.92202
1.87578
1.84848
2.13041
2.04177
1.90739
1.92499
1.91814
1.88565
1.84957
1.8046
1.77844
2.01332
2.00803
1.94213
1.84584
1.84387
1.83816
1.81074
1.77462
1.73272
1.7064
2.24458
2.28461
2.07796
2.03246
2.04901
2.00825
2.2939
2.06278
2.07135
2.00961
1.99165
1.95488
1.91743
1.94324
2.00793
1.99419
1.9566
1.92203
1.87579
1.84849
1.90528
1.92481
1.91817
1.88567
1.84959
1.80463
1.77846
1.84543
1.8439
1.8382
1.81077
1.77464
1.73275
1.70642
2.24457
2.28471
2.07804
2.32063
2.0611
2.07132
2.0096
1.94245
2.00747
1.99417
1.95661
1.90343
1.92459
1.91818
1.88568
1.84492
1.8439
1.83823
1.81078
2.24427
2.34584
2.02615
2.00888
2.11845
1.92177
1.92357
2.02791
2.01659
1.95121
1.84706
1.84242
2.31982
2.22802
2.35209
2.33055
2.2817
2.29555
2.29167
2.3176
2.19723
2.19529
2.28358
2.17887
2.20283
2.08482
2.08029
2.10364
2.11118
2.17394
2.18308
2.24118
2.32531
2.38455
1.96947
2.29715
1.91876
2.56194
2.47745
2.58444
2.64646
2.20055
2.35233
2.38232
2.4234
2.38496
2.25416
2.2973
1.90426
2.23526
1.80874
2.1931
2.27165
2.17317
2.1205
2.23722
2.15241
2.23073
1.78175
2.23142
1.71347
2.113
2.22705
2.14531
2.09385
2.19926
2.12418
2.23382
1.70161
2.26054
1.67574
2.09516
2.19209
2.11767
2.12148
2.17651
2.10005
2.26443
1.67648
2.29296
1.68249
2.12676
2.17344
2.09502
2.16922
2.16961
2.08299
1.69142
1.71679
2.16995
2.08005
1.72988
1.76417
1.77852
2.06126
2.39521
2.03472
2.35252
2.33775
2.30589
2.32302
2.20331
1.66691
2.28363
1.03816
2.26114
0.810517
0.928788
2.40848
2.4093
2.38922
2.455
2.34719
2.47451
1.43951
2.12893
1.59965
2.11249
1.66435
1.65284
1.69059
2.08164
1.74454
2.08515
1.90032
1.8179
1.98377
2.13723
2.06312
2.1463
2.20066
2.13576
2.25781
2.20925
2.30789
2.21776
2.38967
2.35153
2.38731
1.22184
2.38854
1.77951
1.0041
2.83839
3.17725
3.20698
2.66024
2.01812
2.29167
2.0887
2.38782
2.04679
2.28457
2.07605
2.26461
2.1465
2.16021
2.22153
2.24856
2.13482
2.15117
2.02011
2.26406
2.05665
2.35209
1.98634
2.25425
2.03722
1.95686
2.24429
2.02023
2.31903
1.93191
2.23374
2.00393
1.91255
2.22374
1.99011
2.30534
1.89845
2.21404
1.97731
1.88998
2.20551
1.96708
2.30843
1.88635
2.19797
1.95807
1.88741
2.19197
1.95163
1.8921
1.94652
1.90007
1.94369
1.91034
1.94212
1.92256
1.94244
2.15425
2.09899
2.43813
2.06688
2.29091
2.1035
3.25913
1.91699
2.33667
3.20764
1.73203
2.2371
3.5552
1.76157
3.57551
1.81614
2.41284
2.38135
2.3226
2.41911
2.34855
2.33013
2.35496
2.3256
2.37905
2.3804
2.43412
2.32638
2.31867
2.40491
2.3084
2.40995
2.08664
1.97178
2.22095
2.23869
1.87313
2.20274
2.10499
2.06296
2.22389
1.88337
2.16884
1.86979
2.18589
2.04967
3.32132
1.81714
2.17329
3.15381
1.80404
2.0908
2.7293
1.71119
2.76967
1.71586
2.69574
1.72481
2.07909
2.67307
1.73661
2.09638
2.63406
1.90627
2.63201
1.87317
2.63618
1.93563
2.11963
2.64112
1.97019
2.16478
2.6776
2.14437
2.6701
2.1127
2.68333
2.16364
2.19194
2.69059
2.19325
2.23377
2.72461
2.31164
2.71878
2.28835
2.35185
3.27632
2.02987
3.36785
2.0577
2.34309
2.27085
2.00693
2.32329
2.06289
2.06503
2.92171
2.46861
2.72158
2.93587
2.70981
2.63216
2.67538
2.6613
2.49658
2.99512
2.18108
2.2629
2.89746
2.16875
2.42387
2.26854
2.04875
2.03403
2.25783
2.06288
2.0386
1.89306
2.16334
2.16271
2.05312
1.83849
2.0307
2.14711
2.15107
1.74692
1.78612
2.00769
2.11726
2.13151
1.98541
2.22587
2.09806
2.13776
2.22587
2.22256
2.17977
1.72226
2.09801
1.71171
1.94864
2.10404
1.96527
2.09226
2.09552
1.72673
1.71383
1.93566
2.07289
2.08181
1.92635
2.24445
2.26485
2.30575
2.24799
2.3819
2.34482
1.74838
2.10324
1.77681
1.91834
2.06551
1.92059
2.05994
2.10717
1.84596
1.80993
1.91931
2.05418
2.05612
1.92333
2.27711
2.41677
2.44944
2.28097
2.50812
2.47983
1.88325
2.14427
1.92071
1.93905
2.05395
1.93002
2.05545
2.15027
1.9922
1.95717
1.94999
2.06279
2.05841
1.96253
2.39619
2.69859
2.39728
2.32932
2.54769
2.46232
2.6363
2.50814
2.61322
2.65241
2.68803
2.60462
2.61297
2.56349
2.59251
2.32422
2.14117
2.27453
2.5495
2.45103
2.86474
2.33822
2.37092
2.68116
2.31907
2.10194
2.25433
2.20983
2.18806
2.19217
2.26129
1.31736
1.37043
1.20749
2.32309
3.30236
1.73249
3.2391
1.73791
2.24447
3.4177
1.78586
3.49644
1.75508
2.47484
2.5748
2.38023
2.32906
2.614
2.29318
2.41361
2.48235
2.42978
2.75842
2.44596
2.86011
2.34406
2.46804
2.14823
2.96207
1.75436
3.04843
1.78619
2.10066
2.88612
1.7408
2.82357
1.71585
2.07911
2.64412
1.78492
2.65477
1.76113
2.09048
2.63637
1.81362
2.63359
1.84321
2.12818
2.6519
2.0322
2.64532
1.99771
2.15555
2.65714
2.05717
2.66449
2.09057
2.20082
2.70279
2.23725
2.69603
2.20979
2.22569
2.70785
2.25127
2.71416
2.2766
2.39453
3.41002
2.16449
3.29624
2.23787
2.37928
3.50965
2.19252
3.49964
1.99691
1.39199
1.60007
1.31351
2.04757
2.00943
2.59254
2.05247
2.01873
2.01756
1.79759
1.9167
2.03664
2.03652
2.19028
2.10636
2.24296
2.7458
2.75318
2.6241
2.58225
2.6735
2.10402
2.18641
2.60527
2.96736
2.66505
2.39832
2.47091
2.55862
2.981
2.55913
2.05439
1.99708
2.01902
2.49947
2.05542
2.00158
2.01762
2.02485
1.70208
1.40663
1.86892
2.17615
1.92966
1.82355
1.99652
2.4754
2.02249
2.05125
1.95239
1.976
1.99099
1.94385
2.05548
1.8704
2.15818
2.00482
2.10923
2.19019
2.22049
1.90672
2.65228
2.87144
1.89637
2.34022
2.34048
2.19625
2.31726
2.19641
2.31785
2.17367
2.07422
2.17393
2.07422
2.11316
2.04852
2.11348
2.04846
2.07965
1.9913
2.07964
1.99117
2.02497
2.02736
2.23459
2.0839
2.11247
2.2432
2.23453
2.08443
2.11272
2.07753
2.12888
2.07507
2.2847
2.07765
2.12908
2.07525
2.13118
2.04508
2.0488
2.07859
2.13155
2.04518
2.04888
2.0203
2.0241
1.98773
2.03323
2.02033
2.02416
1.98768
2.01309
1.99536
1.95893
2.0496
2.01315
1.99543
1.95901
1.97034
2.64685
1.90201
1.96395
1.92563
1.91333
1.9541
2.34039
2.34008
2.19631
2.3179
2.19596
2.31791
2.17395
2.07424
2.17402
2.07425
2.11359
2.04844
2.11376
2.04846
2.07967
1.99125
2.07964
1.99115
2.02732
2.02819
2.23454
2.08485
2.11282
2.24296
2.23427
2.08521
2.11289
2.07762
2.12918
2.07536
2.28447
2.07756
2.12927
2.07544
2.13152
2.04524
2.04887
2.07811
2.13167
2.04529
2.04887
2.02031
2.02411
1.98756
2.03301
2.02019
2.02409
1.98749
2.01318
1.99549
1.95905
2.04939
2.01319
1.9955
1.9591
2.05377
1.98258
2.00722
2.3048
2.05076
1.95508
1.99729
2.26448
2.28455
2.2225
2.24675
2.65704
2.35458
2.08373
2.54919
2.03671
2.33245
2.33998
2.33976
2.19583
2.31787
2.19554
2.31779
2.17401
2.07427
2.17403
2.07426
2.11378
2.04847
2.11373
2.04854
2.07967
1.99125
2.07966
1.99117
2.02761
2.0271
2.23427
2.0854
2.11293
2.24304
2.23406
2.08559
2.113
2.07753
2.12927
2.07542
2.28427
2.07747
2.12928
2.07542
2.13159
2.04526
2.0488
2.07787
2.13169
2.04524
2.04879
2.0201
2.024
1.98741
2.03283
2.01997
2.02394
1.98737
2.01318
1.99549
1.95909
2.04923
2.01317
1.99545
1.95909
2.04703
1.9281
1.98872
2.24482
2.04292
1.90303
1.9805
2.21225
2.23542
2.19078
2.20736
2.38154
2.35294
1.93951
2.29664
1.94926
2.29726
2.33969
2.33957
2.19547
2.31775
2.19534
2.31766
2.174
2.07426
2.17395
2.07423
2.1137
2.04856
2.11358
2.04862
2.07969
1.99126
2.07969
1.99118
2.02618
2.02457
2.2341
2.08568
2.11304
2.24352
2.23406
2.08574
2.11309
2.07746
2.12926
2.07538
2.28426
2.07741
2.12925
2.07535
2.1316
2.0452
2.04875
2.07782
2.13165
2.04517
2.04875
2.01989
2.0239
1.98735
2.0327
2.0198
2.02387
1.98734
2.01315
1.99543
1.95906
2.04913
2.01314
1.99539
1.95905
2.03866
1.88245
1.97351
2.24238
2.03441
1.86574
1.967
2.18679
2.20063
2.18226
2.18768
2.34971
2.36573
1.96326
2.32845
1.95062
2.34271
2.33954
2.33951
2.19532
2.31761
2.19533
2.31752
2.17391
2.07423
2.17384
2.07418
2.11355
2.04863
2.11344
2.04866
2.07972
1.99128
2.07971
1.99119
2.02343
2.02117
2.23416
2.08569
2.11311
2.24412
2.23424
2.0856
2.11313
2.07741
2.12921
2.07531
2.28439
2.0774
2.1292
2.07527
2.13155
2.04513
2.04873
2.07786
2.13157
2.0451
2.04873
2.01974
2.02385
1.98734
2.03259
2.01968
2.02384
1.98734
2.01312
1.99537
1.95903
2.04906
2.0131
1.99535
1.95902
2.03033
1.85381
1.96148
2.26141
2.02654
1.84594
1.95653
2.18282
2.18562
2.18959
2.18533
2.43234
2.45652
2.03499
2.39055
2.01524
2.40707
2.3395
2.33951
2.19535
2.31748
2.19541
2.31739
2.17379
2.07417
2.17372
2.07413
2.11341
2.04866
2.11334
2.04868
2.07974
1.99128
2.07972
1.99119
2.01996
2.01749
2.23435
2.0854
2.11312
2.24453
2.23445
2.08516
2.11311
2.07741
2.12916
2.07523
2.28454
2.07741
2.12914
2.0752
2.13145
2.04507
2.04871
2.07794
2.13147
2.04505
2.04872
2.01964
2.02383
1.98734
2.0325
2.01959
2.02383
1.98734
2.01308
1.99534
1.959
2.049
2.01306
1.99532
1.95899
2.02309
1.84212
1.95245
2.28713
2.02008
1.84173
1.94896
2.18675
2.45532
2.33952
2.33955
2.19544
2.31735
2.19552
2.31728
2.17368
2.07412
2.17362
2.11332
2.04868
2.07974
2.01633
2.01404
2.23456
2.08483
2.11307
2.2446
2.23462
2.08447
2.11303
2.07743
2.12911
2.07516
2.28465
2.07744
2.1291
2.07513
2.13135
2.04503
2.04871
2.07802
2.13137
2.04502
2.04872
2.01957
2.02383
1.98735
2.03243
2.02383
1.98735
2.01304
1.99531
1.95897
2.01746
1.84427
1.94623
2.314
2.01532
1.84938
1.94409
2.33955
2.33958
2.19554
2.31725
2.013
2.01112
2.23471
2.08405
2.11296
2.24436
2.23473
2.08363
2.11289
2.07745
2.12907
2.0751
2.28472
2.07746
2.12906
2.07509
2.13126
2.04501
2.0487
2.01359
1.85632
1.94258
2.33971
2.01233
1.86499
1.94162
2.01026
2.08317
2.01145
2.14471
2.16022
2.27063
2.27066
2.14919
2.16613
2.49324
2.43037
2.49923
2.43423
2.325
2.27922
2.30672
2.27845
2.30127
2.30438
2.31014
2.27577
2.33432
2.29924
2.27821
2.14103
2.91147
2.38514
2.66532
2.37872
2.11301
2.10134
2.34064
1.67608
1.92249
1.76641
1.86434
1.80882
1.88168
1.78556
2.01013
1.95747
1.8301
1.71499
1.80829
1.87392
1.81934
1.66083
1.7492
1.88854
1.91428
1.83032
1.84311
1.57892
1.66626
1.61569
1.70157
1.83549
2.42676
2.48606
1.99701
2.30459
2.32057
1.96814
1.87545
1.87339
1.87963
1.55364
1.64556
1.75362
1.85195
1.53622
1.63593
1.89724
1.88148
1.91737
1.73417
1.52516
1.64567
1.52787
1.63688
1.96284
2.34019
2.34016
1.93756
2.31575
2.30515
1.9417
1.91922
1.9454
2.06657
1.52929
1.66142
1.68807
2.01329
1.53726
1.68249
2.0054
1.97459
2.12035
1.68297
1.56539
1.736
1.55015
1.7076
2.17378
2.4085
2.38589
1.97878
2.37413
2.35806
1.99632
2.03688
2.06837
2.27494
1.58401
1.76617
1.67464
2.22529
1.60383
1.79802
2.12943
2.09933
2.32179
1.68
1.64802
1.86223
1.62576
1.82989
2.36616
2.50409
2.48058
2.05519
2.4396
2.42347
2.07544
2.15846
2.18624
2.44632
1.67146
1.89352
1.69727
2.40749
1.69462
1.92449
2.23805
2.21284
2.48229
1.70864
1.7412
1.98204
1.71826
1.95364
2.51591
2.2621
2.28479
2.57562
1.76419
2.00845
1.73964
2.54682
1.78624
2.03391
2.32667
2.30636
2.60192
1.75357
1.82873
2.07958
1.80804
2.05722
2.62635
2.34588
2.36393
2.66919
1.84904
2.09998
1.78957
2.64855
1.86819
2.1195
1.94518
2.13496
2.32588
2.03071
2.47286
2.08862
2.30782
2.74346
2.72564
2.52603
2.55173
2.72208
2.72499
2.51966
2.5025
2.51761
1.92047
1.91968
2.63708
2.48796
2.01656
1.95051
2.54515
2.72602
2.73856
2.66828
2.63929
2.7298
2.74151
2.64776
2.59036
2.69415
2.65619
2.56928
2.63266
2.61021
2.63297
2.51089
2.46701
2.55429
2.56337
2.44055
2.44624
2.59133
2.57609
2.43975
2.44987
2.5476
2.5434
2.46643
2.45393
2.53986
2.54079
2.47644
2.49159
2.54526
2.54266
2.52735
2.54316
2.5399
2.54111
2.51769
2.50188
2.54782
2.55129
2.5673
2.55186
2.55846
2.55446
2.57483
2.58969
2.57423
2.56995
2.61528
2.62889
2.562
2.56628
2.61021
2.59597
2.5779
2.58207
2.64582
2.63284
2.58962
2.58564
2.64871
2.6611
2.60336
2.59988
2.6759
2.68722
2.593
2.59675
2.67486
2.66302
2.72642
2.70513
2.82919
2.88132
2.74221
2.75379
2.6751
2.73076
2.7239
2.41682
2.79111
2.28227
2.20711
2.24266
1.87117
2.84828
1.90492
3.2823
2.619
1.8545
1.88699
1.9118
1.91545
1.9364
1.90983
2.18831
2.33531
2.41757
2.39359
2.0235
2.00993
2.01303
2.09837
2.26307
1.95547
2.10698
1.83429
2.56091
2.02375
1.8558
2.14184
2.12269
2.38296
1.87096
1.83992
2.08709
2.29295
2.29294
2.00544
2.03169
2.13976
2.24326
2.13958
2.00537
2.03207
2.13631
2.30405
2.14459
2.28472
2.30417
2.14454
2.13626
1.99605
1.94765
1.94878
2.00846
1.99605
1.94768
1.94884
2.29294
2.29295
2.03185
2.13983
2.00559
2.24305
2.03219
2.13967
2.00569
2.13628
2.3043
2.14442
2.2846
2.13621
2.30429
2.14435
1.9961
1.94767
1.94881
2.00848
1.99606
1.94769
1.94885
1.81988
2.37292
1.78678
1.89712
1.90483
1.8981
1.88494
2.38513
2.39296
2.36672
2.35765
2.23513
2.13026
2.14663
2.19825
2.22331
2.12571
2.14275
2.2929
2.29291
2.03224
2.13976
2.00631
2.24294
2.0326
2.13953
2.00643
2.13637
2.30419
2.14441
2.28435
2.1363
2.30415
2.14439
1.99605
1.94767
1.94881
2.00841
1.996
1.94767
1.94883
1.71374
2.2643
1.70123
1.85705
1.86067
1.86625
1.85597
2.35548
2.34941
2.3484
2.36167
2.21222
2.12091
2.13885
2.17979
2.20197
2.1157
2.13439
2.29287
2.29288
2.0326
2.13965
2.00702
2.24324
2.03295
2.13949
2.00716
2.13648
2.30405
2.14456
2.28425
2.13641
2.30402
2.14456
1.99598
1.94766
1.9488
2.00834
1.99593
1.94767
1.94882
1.68905
2.23931
1.69236
1.82487
1.84793
1.83083
1.84723
2.40844
2.4071
2.394
2.42363
2.19288
2.11074
2.12994
2.16701
2.18516
2.10593
2.12537
2.29285
2.29286
2.03304
2.13993
2.00776
2.24383
2.03337
2.13987
2.00788
2.13653
2.30399
2.14471
2.28432
2.13647
2.30398
2.1447
1.99592
1.94766
1.94879
2.00829
1.99587
1.94767
1.94881
1.71377
2.25046
1.72436
1.80742
1.8484
1.80986
1.84997
2.4664
2.47307
2.45219
2.48884
2.179
2.1017
2.1211
2.16056
2.17445
2.09789
2.11702
2.29284
2.29284
2.03344
2.14046
2.00829
2.24436
2.03379
2.1404
2.00832
2.13655
2.304
2.14483
2.28447
2.1365
2.30401
2.14481
1.99587
1.94767
1.94879
2.00826
1.99583
1.94768
1.94881
1.7592
2.27388
1.77199
1.8028
1.8561
1.80241
1.85883
2.17152
2.09481
2.11349
2.09229
2.11038
2.03366
2.14091
2.0084
2.2446
2.03406
2.14082
2.00833
2.13656
2.30406
2.14492
2.2846
2.13651
2.30407
2.1449
1.94768
1.94879
1.80953
2.3006
1.82213
1.80754
1.86748
1.80517
1.87078
2.03366
2.14118
2.0081
2.24451
2.0341
2.14103
2.00793
2.13657
2.30411
2.14499
2.2847
2.13652
2.30412
2.14495
1.85777
2.32708
1.8693
1.81846
1.88066
1.81481
1.88422
2.03344
2.14123
2.00746
2.24415
2.03393
2.14103
2.00723
1.8946
2.3404
2.34048
2.26859
2.19638
2.26882
2.28691
2.31751
2.28717
2.19641
2.26909
2.26896
2.31769
2.2875
2.28734
2.27486
2.35709
2.05965
2.17379
2.35714
2.05952
2.27496
2.29088
2.14276
2.02158
2.07424
2.14274
2.02146
2.29089
2.27486
2.17385
2.35717
2.05939
2.35717
2.0595
2.27475
2.29091
2.07422
2.14265
2.02136
2.14273
2.02149
2.29082
2.32148
2.25801
2.11325
2.32153
2.25816
2.37227
2.19747
2.08472
2.04851
2.19751
2.08473
2.37223
2.11337
2.32165
2.25841
2.3216
2.25829
2.37228
2.04847
2.19745
2.08475
2.19745
2.08473
2.37228
2.13815
2.24313
2.13816
2.24311
2.03743
2.25548
1.98602
2.07964
2.25552
1.98596
2.03744
2.05062
1.99874
2.00709
1.99124
2.00708
2.05065
1.99867
2.29296
2.29296
2.13817
2.24309
2.13814
2.24312
2.03744
2.07966
2.25555
1.9859
2.25553
1.98599
2.03742
2.05065
1.99127
1.99864
2.00702
2.00707
2.0506
1.99872
2.18855
2.33663
2.33893
2.18903
2.47133
2.50686
2.00708
2.09831
2.02603
2.00466
2.25908
2.25429
2.0985
2.33997
2.18942
2.18926
2.33931
2.47006
2.49583
2.02618
2.00057
2.00274
2.24579
2.09787
2.09798
2.23804
2.11512
2.20462
2.09995
2.23456
2.2044
2.09987
2.11532
2.03203
2.24328
2.13965
2.00543
2.1398
2.00535
2.03172
2.1153
2.23464
2.20435
2.09974
2.20458
2.09984
2.11514
2.15836
2.33225
2.02661
2.07758
2.33241
2.02647
2.15837
2.13621
2.28478
2.3043
2.14444
2.30425
2.1445
2.13629
2.15848
2.07759
2.33262
2.02606
2.33253
2.02617
2.1584
2.34029
2.34018
2.2691
2.19621
2.26912
2.28753
2.31794
2.28755
2.19608
2.26906
2.26909
2.31792
2.28752
2.28753
2.27474
2.35719
2.05944
2.17399
2.2748
2.3572
2.05938
2.29072
2.14263
2.02145
2.07425
2.29081
2.14258
2.02135
2.27483
2.17399
2.35724
2.05943
2.35722
2.05948
2.27479
2.29073
2.07425
2.14255
2.02134
2.14258
2.02145
2.29066
2.32172
2.25847
2.11367
2.32177
2.25851
2.37223
2.19738
2.08478
2.04845
2.37225
2.19737
2.0848
2.11374
2.32185
2.25855
2.32182
2.25854
2.37221
2.04845
2.19732
2.08486
2.19732
2.08483
2.3722
2.13813
2.2431
2.13815
2.24308
2.03741
2.25554
1.98596
2.07965
2.03743
2.25553
1.9859
2.05058
1.9987
2.00706
1.99119
2.05062
2.00705
1.99862
2.29293
2.29292
2.13814
2.24306
2.13811
2.24309
2.03742
2.07966
2.2555
1.98588
2.25551
1.98596
2.03739
2.05061
1.99124
1.99861
2.00702
2.00706
2.05056
1.99869
2.33842
2.18932
2.33835
2.18944
2.44506
2.41462
1.99996
2.24216
2.09752
2.028
2.23762
2.09785
1.99972
2.33902
2.1898
2.18953
2.33989
2.36222
2.38676
2.2467
2.02774
2.09854
1.99775
2.09797
1.99875
2.25122
2.11515
2.20451
2.09974
2.23442
2.11536
2.20431
2.09962
2.03239
2.24302
2.13964
2.00607
2.13984
2.00594
2.03206
2.11544
2.2344
2.20424
2.09962
2.20445
2.09971
2.11524
2.15835
2.33264
2.0259
2.07761
2.15846
2.33263
2.02588
2.13624
2.28457
2.30423
2.14434
2.30426
2.14439
2.13631
2.15842
2.07758
2.33256
2.02587
2.33261
2.02586
2.15833
2.33473
1.73245
1.7566
1.88742
1.86703
1.87471
1.87761
2.26039
2.24844
2.24684
2.23423
2.28819
2.25751
2.25759
2.2398
2.24862
2.26903
2.24025
2.35215
2.34274
2.34461
2.3466
2.25035
2.24438
2.23313
2.2413
2.226
2.23501
2.24142
2.21199
2.25349
2.22548
2.21557
2.3399
2.33982
2.26902
2.19572
2.26897
2.28748
2.31785
2.28744
2.19562
2.26886
2.26892
2.31782
2.28736
2.2874
2.27487
2.35726
2.05956
2.17403
2.2749
2.35728
2.05953
2.29064
2.14257
2.02148
2.07428
2.29069
2.14256
2.02138
2.27499
2.17401
2.35731
2.05963
2.35729
2.05966
2.27496
2.29069
2.07427
2.14257
2.0214
2.14258
2.0215
2.29064
2.32187
2.25856
2.11377
2.32187
2.25856
2.37219
2.19728
2.08489
2.0485
2.37219
2.1973
2.08492
2.11376
2.32184
2.25854
2.32186
2.25856
2.37221
2.04852
2.19731
2.08497
2.19728
2.08495
2.37221
2.1381
2.24308
2.13812
2.24306
2.03738
2.25548
1.98596
2.07966
2.03741
2.25547
1.9859
2.05055
1.99868
2.00706
1.99119
2.0506
2.00705
1.99861
2.2929
2.29289
2.13811
2.24305
2.13809
2.24307
2.0374
2.07968
2.25546
1.98589
2.25547
1.98597
2.03737
2.05059
1.99125
1.99861
2.00702
2.00706
2.05054
1.99868
2.34165
2.18999
2.3408
2.19034
2.34087
2.32228
2.25688
2.09872
1.99604
2.0278
2.25453
2.09928
1.99457
2.34226
2.19096
2.1906
2.3427
2.29395
2.30689
2.25831
2.02708
2.09982
1.9912
2.09938
1.99267
2.2592
2.1154
2.20439
2.09976
2.23415
2.11556
2.20419
2.0997
2.03277
2.24299
2.13946
2.00679
2.13967
2.00666
2.03241
2.11573
2.23416
2.20419
2.09978
2.20437
2.09985
2.11558
2.15835
2.33253
2.02592
2.07751
2.15842
2.33248
2.02595
2.13635
2.28435
2.30408
2.14447
2.30411
2.14448
2.13643
2.15845
2.07749
2.33241
2.02603
2.33245
2.02601
2.15839
2.25251
1.68955
1.69291
1.84691
1.84973
1.85217
1.83914
2.26313
2.2813
2.27605
2.25636
2.20447
2.23295
2.20107
2.20333
2.20854
2.22766
2.19171
2.36644
2.39098
2.3757
2.37992
2.32156
2.30116
2.29813
2.32018
2.20328
2.19638
2.2253
2.1791
2.22533
2.18462
2.2044
2.33964
2.3396
2.2688
2.19541
2.26875
2.28731
2.31772
2.28726
2.19537
2.26864
2.26869
2.31768
2.28716
2.28721
2.27505
2.35731
2.05976
2.174
2.27508
2.35731
2.05972
2.29066
2.14259
2.02154
2.07426
2.29069
2.14258
2.02144
2.27516
2.17396
2.35729
2.05978
2.3573
2.05983
2.27511
2.29072
2.07425
2.14258
2.02146
2.1426
2.02156
2.29068
2.32183
2.25853
2.11366
2.3218
2.25851
2.37223
2.1973
2.085
2.04859
2.37222
2.19734
2.08502
2.11363
2.32173
2.25847
2.32177
2.25849
2.37225
2.0486
2.19737
2.08504
2.19733
2.08503
2.37225
2.13809
2.24307
2.1381
2.24305
2.03736
2.25545
1.98597
2.07969
2.03739
2.25545
1.9859
2.05055
1.99869
2.00706
1.9912
2.05058
2.00705
1.99862
2.29287
2.29286
2.1381
2.24305
2.13808
2.24307
2.03738
2.07971
2.25545
1.98589
2.25545
1.98597
2.03736
2.05059
1.99127
1.99862
2.00702
2.00706
2.05054
1.9987
2.34277
2.19122
2.34281
2.19155
2.28359
2.27509
2.25914
2.09977
1.98936
2.02597
2.25928
2.10004
1.98806
2.34243
2.19203
2.19177
2.34201
2.26315
2.26848
2.25842
2.02493
2.09994
1.98543
2.09984
1.98645
2.25769
2.11578
2.20441
2.09994
2.23403
2.11593
2.20426
2.09988
2.03315
2.24339
2.13964
2.00754
2.13974
2.0074
2.03282
2.11612
2.2341
2.2044
2.09997
2.20451
2.10003
2.11597
2.15844
2.33239
2.02609
2.07744
2.15849
2.33235
2.0261
2.13644
2.28429
2.30399
2.14463
2.30401
2.14464
2.1365
2.15853
2.07743
2.33232
2.02615
2.33234
2.02615
2.15848
2.24009
1.70514
1.69735
1.8185
1.84756
1.84695
1.81435
2.34209
2.36245
2.36307
2.3419
2.21243
2.22745
2.17541
2.18407
2.20764
2.23123
2.17319
2.42308
2.45682
2.4403
2.43768
2.40166
2.38236
2.38352
2.40311
2.21869
2.18258
2.24291
2.1727
2.23654
2.1723
2.22593
2.33952
2.33951
2.26858
2.19532
2.26854
2.28711
2.31758
2.28707
2.19532
2.26846
2.2685
2.31755
2.28698
2.28702
2.27517
2.35728
2.05989
2.1739
2.27522
2.35726
2.05984
2.29069
2.1426
2.02159
2.07421
2.29073
2.14259
2.02149
2.27526
2.17385
2.35723
2.05987
2.35724
2.05994
2.2752
2.29075
2.0742
2.14257
2.0215
2.1426
2.02161
2.29071
2.3217
2.25845
2.11351
2.32167
2.25842
2.37227
2.19736
2.08505
2.04865
2.37226
2.1974
2.08505
2.11348
2.32161
2.25837
2.32164
2.2584
2.37228
2.04865
2.19743
2.08505
2.19739
2.08505
2.37228
2.13808
2.24308
2.1381
2.24306
2.03735
2.25545
1.98597
2.07971
2.03738
2.25546
1.9859
2.05054
1.99871
2.00706
1.99121
2.05058
2.00704
1.99864
2.29285
2.29285
2.1381
2.24307
2.13808
2.24309
2.03738
2.07973
2.25547
1.98589
2.25546
1.98597
2.03735
2.05059
1.99128
1.99865
2.00701
2.00705
2.05054
1.99872
2.34066
2.19215
2.34135
2.19231
2.25914
2.25596
2.25551
2.09959
1.9841
2.02293
2.25654
2.09953
1.98334
2.33981
2.19236
2.19232
2.339
2.25197
2.25371
2.25419
2.02175
2.09884
1.98175
2.09903
1.98227
2.25306
2.11616
2.20468
2.10012
2.23414
2.11631
2.20458
2.10006
2.03358
2.24399
2.14013
2.00815
2.14019
2.00807
2.03325
2.11648
2.23425
2.20477
2.10014
2.20487
2.1002
2.11632
2.15851
2.33232
2.0262
2.0774
2.15857
2.33231
2.02619
2.13648
2.28439
2.30399
2.14476
2.30399
2.14478
2.13654
2.15859
2.0774
2.33231
2.02621
2.33232
2.02623
2.15853
2.25573
1.74727
1.73515
1.80464
1.85387
1.85162
1.80372
2.42019
2.43789
2.43956
2.42182
2.24286
2.25026
2.17405
2.1844
2.23412
2.25821
2.17649
2.4803
2.5187
2.50409
2.49373
2.47065
2.45471
2.45638
2.47223
2.25217
2.18656
2.27551
2.18345
2.26675
2.17951
2.26166
2.3395
2.33951
2.26842
2.19537
2.2684
2.28694
2.31745
2.2869
2.19539
2.26835
2.26837
2.31741
2.28684
2.28687
2.27523
2.3572
2.05997
2.17378
2.27529
2.35718
2.0599
2.29071
2.14259
2.02163
2.07416
2.29076
2.14257
2.02153
2.27531
2.17373
2.35714
2.05991
2.35716
2.05999
2.27524
2.29077
2.07414
2.14255
2.02153
2.14257
2.02164
2.29072
2.32159
2.25834
2.11338
2.32156
2.25832
2.37227
2.19742
2.08505
2.04868
2.37228
2.19745
2.08504
2.11336
2.32152
2.25827
2.32154
2.2583
2.37227
2.04867
2.19747
2.08502
2.19744
2.08503
2.37227
2.13808
2.2431
2.1381
2.24308
2.03735
2.25547
1.98597
2.07972
2.03737
2.25548
1.98589
2.05054
1.99873
2.00704
1.99121
2.05058
2.00702
1.99866
2.29284
2.1381
2.2431
2.03737
2.07974
2.25549
1.98588
2.25548
1.98596
2.03735
2.05058
1.99128
1.99866
2.00699
2.00703
2.05054
1.99874
2.33722
2.19227
2.33807
2.1922
2.25089
2.25012
2.25063
2.09823
1.98092
2.01932
2.25174
2.09793
1.98061
2.3363
2.19184
2.192
2.33548
2.24976
2.24985
2.2494
2.01813
2.09687
1.97986
2.09724
1.97998
2.24839
2.11647
2.20506
2.10028
2.23435
2.11664
2.20497
2.10022
2.03394
2.24446
2.14063
2.00838
2.1407
2.0084
2.03358
2.11677
2.23446
2.20514
2.10028
2.20525
2.10036
2.11659
2.15853
2.33233
2.02625
2.07741
2.1586
2.33232
2.02623
2.1365
2.28455
2.30404
2.14485
2.30403
2.14488
2.13655
2.15861
2.07741
2.33234
2.02623
2.33234
2.02626
2.15854
2.28049
1.79721
1.78434
1.80273
1.86454
1.86147
1.80422
2.4857
2.4872
2.33953
2.33954
2.26833
2.19547
2.26832
2.28681
2.31733
2.28678
2.19549
2.2683
2.26831
2.3173
2.28673
2.28675
2.27524
2.35711
2.06
2.17367
2.27531
2.35709
2.05992
2.29072
2.14256
2.02166
2.07411
2.29076
2.14254
2.02155
2.27532
2.17363
2.35705
2.05993
2.35707
2.06001
2.27524
2.3215
2.25825
2.1133
2.32148
2.25822
2.37225
2.19745
2.08501
2.04868
2.37226
2.19748
2.085
2.03735
2.25549
1.98596
2.07973
2.03737
2.2555
1.98589
2.33385
2.19155
2.33461
2.19131
2.25004
2.25042
2.24642
2.09614
1.97941
2.01571
2.24729
2.09572
1.97944
2.33307
2.19066
2.19096
2.3324
2.25183
2.25111
2.24548
2.01461
2.09452
1.97933
2.09495
1.97916
2.24476
2.11669
2.20541
2.10042
2.23454
2.11688
2.20529
2.10035
2.03411
2.24462
2.14095
2.00817
2.14107
2.0083
2.03369
2.11697
2.23464
2.20542
2.10039
2.20555
2.10048
2.11676
2.15854
2.33236
2.02626
2.07743
2.15861
2.33236
2.02624
2.13652
2.28467
2.3041
2.14492
2.30409
2.14496
2.13657
2.15861
2.07744
2.33237
2.02624
2.33238
2.02627
2.15853
2.30737
1.84626
1.83413
1.80931
1.87738
1.87392
1.81241
2.33956
2.33957
2.26829
2.19557
2.26829
2.28671
2.31724
2.28669
2.33116
2.19026
2.33172
2.18993
2.25281
2.25377
2.24345
2.09375
1.9792
2.01248
2.244
2.09332
1.97951
2.33058
2.18916
2.18951
2.33012
2.25612
2.25498
2.24286
2.01154
2.09217
1.97995
2.09257
1.97952
2.24247
2.11681
2.20566
2.10052
2.23468
2.11703
2.20552
2.10043
2.03404
2.24445
2.14105
2.0076
2.14123
2.00781
2.03357
2.11706
2.23477
2.20558
2.10045
2.20575
2.10055
2.11682
2.15853
2.33239
2.02627
2.07746
2.1586
2.33238
2.02624
2.13653
2.28475
2.30414
2.14497
2.30413
2.14501
2.13657
2.1586
2.07746
2.33239
2.02624
2.3324
2.02627
2.15852
2.3335
1.89112
1.88024
1.82134
1.8912
1.88758
1.82544
2.32931
2.18872
2.32966
2.18837
2.25748
2.24182
2.09147
1.98009
2.00992
2.24205
2.0911
1.98063
2.05577
2.1106
2.04126
2.07873
2.11074
2.04116
2.05573
2.01586
2.07277
2.01888
2.04962
2.07287
2.01893
2.01582
2.07174
2.04829
2.0372
2.06734
2.07223
2.0493
2.03769
2.02814
2.04443
2.00099
2.0711
2.02826
2.04465
2.00104
2.37517
2.41099
2.3705
2.36768
2.27565
2.28595
2.31211
1.96711
1.98111
1.92609
2.02491
1.95963
1.97023
1.91612
2.17381
2.12989
2.09372
2.20813
2.16997
2.12619
2.09306
2.05579
2.11081
2.04052
2.07833
2.05573
2.11085
2.0404
2.01597
2.07303
2.01879
2.04949
2.01595
2.0731
2.01874
2.07249
2.04968
2.03778
2.06799
2.07272
2.04952
2.03784
2.0283
2.04482
2.00102
2.07128
2.02839
2.0449
2.00107
2.34817
2.37223
2.22222
2.20147
2.33829
2.2311
2.25047
2.15402
2.11642
2.08476
2.18252
2.14483
2.11311
2.08128
2.0558
2.11074
2.04024
2.07796
2.05578
2.11075
2.04023
2.01603
2.07313
2.0186
2.0493
2.01602
2.07315
2.01859
2.07281
2.04896
2.03788
2.06779
2.07292
2.04816
2.03785
2.02837
2.04497
2.00108
2.07135
2.0284
2.04493
2.00111
2.33341
2.16629
2.30672
2.16323
2.2967
2.17388
2.18509
2.13773
2.11102
2.07917
2.16409
2.13093
2.10819
2.07693
2.05573
2.11061
2.04029
2.07783
2.05573
2.11061
2.0403
2.01602
2.07312
2.01854
2.04917
2.01604
2.07313
2.01855
2.07295
2.0472
2.03785
2.06685
2.07297
2.04616
2.03778
2.02839
2.04498
2.00113
2.07139
2.02841
2.04494
2.00116
2.3097
2.17104
2.27061
2.17785
2.26349
2.14592
2.15041
2.12422
2.10491
2.07453
2.14782
2.1175
2.10116
2.07177
2.05565
2.11047
2.04038
2.07783
2.05564
2.11047
2.0404
2.01599
2.07306
2.01853
2.04909
2.01601
2.07307
2.01853
2.07291
2.045
2.03772
2.06539
2.07286
2.04386
2.0376
2.02839
2.04498
2.00117
2.07139
2.02839
2.04494
2.00119
2.30522
2.20431
2.24736
2.21456
2.24398
2.13873
2.13871
2.1111
2.09725
2.0688
2.13504
2.10519
2.09326
2.06566
2.05557
2.11036
2.04046
2.0779
2.05556
2.11037
2.04046
2.01593
2.07299
2.01851
2.04903
2.01596
2.073
2.01852
2.07273
2.04267
2.0375
2.06369
2.07263
2.04155
2.03734
2.02836
2.04498
2.00119
2.07138
2.02837
2.04493
2.0012
2.10007
2.08959
2.06264
2.08612
2.05965
2.05551
2.11029
2.04051
2.07798
2.0555
2.11031
2.04051
2.01588
2.07292
2.01849
2.04898
2.0159
2.07293
2.01849
2.07247
2.04045
2.03721
2.06197
2.07233
2.03944
2.03703
2.02834
2.04497
2.0012
2.07135
2.02835
2.04491
2.00122
2.05548
2.11025
2.04055
2.07805
2.05546
2.11028
2.04055
2.07214
2.03846
2.03688
2.06037
2.07199
2.03762
2.03667
2.02832
2.04493
2.00122
2.07132
2.02833
2.04487
2.00122
2.04524
2.03642
2.06531
2.07134
2.04691
2.0368
2.44381
2.47565
2.37817
2.33896
1.98768
1.997
1.96714
2.03905
1.97603
1.9815
1.94041
2.1306
2.09994
2.21978
2.17549
2.12872
2.09084
2.34493
2.30826
2.34374
2.2765
2.37284
2.29304
2.31306
2.103
2.27348
2.00826
2.12744
2.26402
2.25035
2.18061
2.2191
2.41082
2.22212
2.30846
2.38684
2.21612
2.23515
2.20143
1.9519
1.95641
2.04589
2.17501
2.18328
2.04063
2.19828
2.29705
2.33988
2.20054
2.36201
2.20678
2.18286
2.35303
2.37231
2.35027
2.42559
2.42252
2.40514
2.44845
2.3
2.31201
2.31786
2.3519
2.31207
2.32759
2.33243
2.4524
2.47756
2.3507