/*--------------------------------*- C++ -*----------------------------------*\
  =========                 |
  \\      /  F ield         | OpenFOAM: The Open Source CFD Toolbox
   \\    /   O peration     | Website:  https://openfoam.org
    \\  /    A nd           | Version:  10
     \\/     M anipulation  |
\*---------------------------------------------------------------------------*/
FoamFile
{
    format      ascii;
    class       volScalarField;
    location    "2000";
    object      nut;
}
// * * * * * * * * * * * * * * * * * * * * * * * * * * * * * * * * * * * * * //

dimensions      [0 2 -1 0 0 0 0];

internalField   nonuniform List<scalar> 
8643
(
0.391917
0.593219
0.859391
1.35878
1.19988
1.73824
0.193378
2.02169
2.49769
2.79875
3.49869
3.14699
3.77167
0.916152
1.9123
3.59474
4.2622
4.67035
4.85831
5.01306
5.10858
1.71432
1.9784
2.49082
3.56601
4.58229
5.27572
5.73757
5.99839
6.16988
6.2755
3.47478
3.69203
4.08214
4.7145
5.48665
6.14418
6.62664
6.93701
7.13913
7.26143
0.392197
0.592799
0.856972
1.3559
1.19715
1.73702
0.314024
2.01886
2.49379
2.79368
3.4937
3.14304
3.76992
0.856727
2.49455
3.59584
4.25643
4.66664
4.85614
5.01059
5.10717
1.83824
2.04412
2.96864
3.60861
4.57922
5.27448
5.73599
5.99696
6.16859
6.27442
3.5494
3.80506
4.1297
4.74105
5.48996
6.1442
6.62566
6.93605
7.13825
7.26064
0.392219
0.592628
0.856256
1.35481
1.1961
1.73629
0.353196
2.0167
2.49115
2.79024
3.49125
3.14057
3.76867
0.855278
2.49541
3.59345
4.25323
4.6645
4.85443
5.00899
5.10589
1.84104
2.0477
2.978
3.61297
4.57683
5.273
5.73449
5.99561
6.16732
6.2733
3.56057
3.8122
4.13535
4.73583
5.48951
6.14331
6.62461
6.93504
7.1373
7.25976
0.392277
0.59259
0.85609
1.35441
1.19571
1.73597
0.361657
2.01513
2.49011
2.78879
3.4901
3.13925
3.76794
0.83989
2.49702
3.5916
4.25185
4.66351
4.85336
5.00806
5.10501
1.846
2.04276
2.98733
3.61801
4.57481
5.2719
5.73345
5.99461
6.16636
6.27242
3.56229
3.81845
4.14223
4.732
5.48845
6.14254
6.62379
6.93422
7.1365
7.259
0.392327
0.5926
0.856085
1.35421
1.19554
1.73583
0.368182
2.01353
2.4897
2.7882
3.48967
3.13861
3.76754
0.832562
2.49982
3.59047
4.25137
4.66311
4.85275
5.0075
5.10444
1.85379
2.03997
2.99616
3.6232
4.57345
5.27118
5.73281
5.994
6.16573
6.27183
3.56374
3.8238
4.1492
4.72944
5.4875
6.14206
6.62325
6.93367
7.13596
7.25846
0.392431
0.592626
0.856123
1.35409
1.19547
1.73576
0.375349
2.01192
2.48949
2.78793
3.48949
3.1383
3.7673
2.50402
3.58956
4.25123
4.66295
4.85242
5.00721
5.10412
2.04023
3.00479
3.62848
4.57259
5.27074
5.73244
5.99363
6.16535
6.27146
3.56354
3.82846
4.15613
4.72784
5.48672
6.14179
6.62292
6.93332
7.13561
7.25811
0.392545
0.592652
0.856169
1.35401
1.19543
1.73573
0.382996
2.01043
2.48938
2.7878
3.48934
3.13815
3.76716
2.50964
3.58838
4.25094
4.66291
4.85224
5.00706
5.10392
3.63388
4.57211
5.27045
5.73225
5.99343
6.16512
6.27124
4.72706
5.48606
6.14162
6.62275
6.93313
7.1354
7.2579
0.392627
0.592672
0.856211
0.390613
2.00915
2.4893
2.78777
2.51657
3.58754
4.25075
4.66292
3.63947
4.57192
5.27025
5.73215
4.72697
5.48547
6.14153
6.62266
0.392651
0.397891
1.89818
3.59605
2.37286
3.54827
4.58589
3.53798
3.70828
3.97322
4.72263
5.48613
0.346145
0.3008
1.05766
1.2096
1.2245
1.28972
0.559539
1.3099
1.66648
0.495551
1.33703
1.64111
0.314282
0.340433
0.342996
0.361194
0.363413
0.377723
0.379476
0.391265
0.354024
0.546641
0.610105
0.482416
0.717234
0.409876
0.409789
0.439809
0.308272
0.43298
0.223098
0.472282
0.180186
0.398955
0.476595
0.49247
0.762082
0.494637
0.765703
0.517154
1.36331
1.71861
0.534301
1.37448
1.71901
0.494892
0.766036
0.504256
0.762089
0.535359
1.3683
1.71401
0.545703
1.35772
1.70459
0.505448
0.768198
0.515349
0.777477
0.548008
1.35504
1.70142
0.561503
1.35494
1.69681
0.516318
0.786858
0.524535
0.80299
0.562144
1.35499
1.6951
0.575074
1.36134
1.69489
0.813878
0.832692
1.36295
1.69459
0.843956
0.862879
0.873872
0.719817
0.55581
0.729483
1.07273
1.20226
0.573896
1.31996
1.76091
0.099578
0.297444
0.0206946
0.293524
0.0139904
0.0199739
0.489398
0.46833
0.373675
0.39351
0.397234
0.346116
0.144102
0.331227
0.151182
0.333217
0.168813
0.156997
0.174174
0.351195
0.177881
0.353742
0.188449
0.18263
0.194836
0.36994
0.201355
0.371893
0.213829
0.207733
0.219613
0.384781
0.225018
0.3864
0.234898
0.230152
0.331985
0.0283984
0.335259
0.114343
0.0181412
0.222747
0.208232
0.198478
0.336366
1.00048
1.7516
1.89146
0.845614
1.12042
1.7058
1.97933
1.86924
2.3667
2.5907
1.82897
1.90277
2.57284
2.63158
1.15793
1.82235
2.0127
0.860042
1.16384
1.86133
2.00749
1.16892
1.85612
2.00202
0.842626
1.17556
1.84938
1.99632
1.18424
1.83878
1.99508
0.833312
1.19403
1.83126
1.99318
1.20536
1.82105
1.9954
0.831625
1.21736
1.81291
1.99665
1.23041
1.8024
2.00164
1.24365
2.00538
1.25748
2.01245
1.27108
2.01801
1.28489
2.02655
1.15069
1.92779
0.908654
1.13494
1.64288
1.85197
0.230653
0.172714
0.321334
0.205593
0.125366
0.294486
0.181234
0.126759
0.176494
0.128329
0.822022
0.866589
0.690799
0.653895
0.992271
1.15432
0.734973
1.10466
0.603413
0.737873
0.764597
1.09656
1.24501
0.813239
1.15487
0.693492
0.614551
0.279916
0.91475
0.493389
0.258226
0.895393
0.621163
0.610364
0.489261
0.266089
0.881576
0.270697
0.884841
0.60508
0.204382
0.172826
0.323994
0.225759
0.191388
0.33779
0.223998
0.213486
0.226762
0.214199
0.221213
0.220444
0.345798
0.219097
0.220178
0.358742
0.212852
0.2366
0.212839
0.235903
0.212413
0.24143
0.365708
0.212741
0.242635
0.375776
0.215345
0.262483
0.214598
0.261031
0.215847
0.267653
0.38133
0.216733
0.268951
0.389639
0.221153
0.286594
0.220178
0.285969
0.351511
0.230733
0.19094
0.207565
0.170692
0.490345
0.556493
0.329748
0.479162
0.312328
0.269835
0.253284
0.419284
0.331709
0.242731
0.367783
0.36366
0.329805
0.364083
0.299889
0.192651
0.158405
0.314749
0.175365
0.266761
0.342324
0.49737
0.337164
0.354129
0.495597
0.384617
0.369437
0.324922
0.945582
0.535422
0.679809
0.343008
0.700489
0.953592
0.535042
0.35727
0.351053
0.705484
0.944974
0.948883
0.70728
0.498483
0.391373
0.394034
0.499564
0.403368
0.398248
0.363609
0.538693
0.370723
0.711525
0.94203
0.708926
0.940092
0.540682
0.386972
0.378548
0.714924
0.938345
0.938808
0.719112
0.510043
0.409409
0.416025
0.511161
0.429427
0.42277
0.395816
0.55357
0.404929
0.72929
0.938492
0.723905
0.939338
0.555938
0.423225
0.414104
0.735067
0.942567
0.940645
0.741287
0.520139
0.436027
0.442478
0.521034
0.454732
0.44874
0.432137
0.5679
0.440777
0.754576
0.94489
0.747793
0.947681
0.568743
0.456859
0.449012
0.761459
0.95415
0.95071
0.768501
0.527978
0.371142
0.53621
0.557635
0.476201
0.484974
0.475079
0.402123
0.356034
0.383287
0.401595
0.385574
0.319228
0.40672
0.424313
0.536951
0.327809
0.938373
0.262011
0.471366
0.202362
0.582869
0.549239
0.448127
0.54075
0.334129
0.993504
0.298312
0.723206
0.657636
0.943784
0.101866
0.0521154
0.0705378
0.30283
0.180114
0.113922
0.186497
0.110124
0.293585
0.171946
0.119607
0.174272
0.120366
0.379222
0.40634
0.497258
0.50199
0.348082
0.504085
0.444665
0.308626
0.362262
0.192357
0.349006
0.187076
0.361307
0.319117
0.328646
0.235128
0.203168
0.228677
0.202014
0.335497
0.232873
0.209059
0.230422
0.207729
0.348433
0.215851
0.227379
0.217105
0.227533
0.356357
0.214226
0.231455
0.21379
0.231421
0.367782
0.213225
0.24915
0.212697
0.247688
0.373934
0.213481
0.254311
0.214141
0.255837
0.383015
0.218233
0.275142
0.217266
0.274058
0.38809
0.218729
0.280175
0.219711
0.281036
0.330066
0.170535
0.15786
0.16368
0.155931
0.343955
0.176052
0.16397
0.186297
0.148559
0.118164
0.0844547
0.0996996
1.14137
1.90466
0.209497
1.44492
1.23562
1.91261
0.225189
0.0674311
0.666329
0.386888
0.63618
0.364455
0.505905
0.195735
0.185674
0.272043
0.273293
0.308035
0.286136
0.292353
0.300976
0.190096
0.262476
0.326133
0.355798
0.344442
0.14558
0.308294
1.44218
1.10256
2.00017
0.275221
1.4498
1.18949
2.0195
1.19409
0.207681
0.0518578
0.30352
0.625456
0.605911
0.298288
0.341405
0.190988
0.489856
0.457305
0.945021
0.623364
0.630852
0.941417
0.14916
0.211923
0.156421
0.127293
0.121068
0.28239
0.280058
0.234935
0.155922
0.138795
0.249827
0.393417
0.393234
0.5137
0.634418
0.513182
0.633703
0.741765
0.823801
0.741167
0.823004
0.750405
0.903708
0.750329
0.903533
1.01702
1.19132
1.01684
1.18994
1.19043
1.19467
0.578129
1.41065
1.61597
0.392169
0.577715
1.40997
1.61461
0.740204
1.73432
1.84628
0.59286
0.739246
1.73282
1.84454
1.07629
2.01367
2.16125
0.857463
1.07465
2.01067
2.15676
1.44661
2.18841
2.25299
1.35715
1.44526
2.18546
2.2499
1.51916
2.3224
2.35742
1.19766
1.51806
2.31934
2.35601
0.430629
0.190047
0.419057
0.604775
0.922734
0.926213
0.603203
0.393216
0.393139
0.513058
0.633878
0.512904
0.633505
0.74108
0.822949
0.740893
0.822588
0.750296
0.903033
0.750168
0.903209
1.01635
1.19102
1.01649
1.18974
1.19132
1.19331
0.5777
1.40924
1.6134
0.392287
0.577475
1.40882
1.6126
0.738978
1.73158
1.84293
0.592599
0.738614
1.73073
1.84181
1.07348
2.00837
2.15352
0.856335
1.07347
2.00709
2.15194
1.44415
2.18306
2.24774
1.35518
1.44344
2.18126
2.24618
1.51728
2.31716
2.35468
1.19621
1.5168
2.31571
2.35364
1.46708
1.21875
2.01227
0.348864
1.47179
1.20996
2.00546
1.23269
1.30051
1.23259
1.29954
0.255602
0.458354
0.489456
0.268345
0.51155
0.476607
0.393133
0.393131
0.512877
0.633688
0.512826
0.633511
0.740924
0.822709
0.740855
0.822532
0.750138
0.90289
0.75002
0.903183
1.0162
1.19092
1.01645
1.18972
1.18954
1.19112
0.577554
1.40854
1.61216
0.392331
0.577434
1.40842
1.61192
0.73855
1.7302
1.84111
0.592534
0.738436
1.7299
1.84069
1.07278
2.00644
2.15126
0.856104
1.07328
2.00611
2.15106
1.44307
2.18026
2.24541
1.35455
1.44278
2.1797
2.24491
1.51658
2.31507
2.353
1.19572
1.5164
2.31462
2.35255
1.4723
1.19881
1.99827
0.359888
1.47028
1.19044
1.99341
1.23366
1.29582
1.23972
1.29066
0.309397
0.312348
0.549133
0.507911
0.540352
0.515992
0.393127
0.393118
0.512816
0.633707
0.512803
0.633532
0.740898
0.822675
0.740837
0.82251
0.749996
0.902904
0.749903
0.903202
1.01621
1.19095
1.01646
1.18975
1.1874
1.18887
0.577537
1.40832
1.6118
0.392371
0.577447
1.40825
1.61172
0.738422
1.72972
1.84044
0.592534
0.738374
1.72961
1.84027
1.07264
2.00593
2.15103
0.856074
1.07317
2.00584
2.15112
1.44266
2.17945
2.24479
1.35427
1.4425
2.17932
2.24465
1.51634
2.31454
2.35231
1.19551
1.51626
2.3144
2.3521
1.46809
1.185
1.98829
0.366336
1.46478
1.1821
1.98516
1.24341
1.28989
1.25528
1.29267
0.318498
0.321078
0.588535
0.526148
0.578385
0.528194
0.393108
0.393096
0.512804
0.633722
0.512812
0.633526
0.74088
0.822655
0.740814
0.822488
0.74989
0.90293
0.749827
0.90322
1.01624
1.19099
1.01648
1.18978
1.18522
1.18672
0.577557
1.40814
1.61167
0.392457
0.577481
1.40802
1.61164
0.738377
1.72953
1.84017
0.592557
0.738355
1.72947
1.84008
1.07253
2.0058
2.15122
0.856105
1.07307
2.00578
2.15133
1.44245
2.17928
2.2447
1.35412
1.44235
2.17927
2.24464
1.51624
2.31447
2.35202
1.19542
1.51618
2.3144
2.35189
1.46191
1.18135
1.98149
0.373324
1.45813
1.18268
1.97975
1.26028
1.29395
1.27446
1.30164
0.330737
0.334319
0.627346
0.537044
0.618026
0.540535
0.393086
0.393079
0.512817
0.633711
0.512835
0.633502
0.740856
0.822632
0.740789
0.822463
0.749821
0.902952
0.749778
0.903232
1.01626
1.19102
1.0165
1.1898
1.18316
1.18485
0.577595
1.40786
1.61162
0.39257
0.577523
1.40768
1.61159
0.738365
1.72943
1.84003
0.592584
0.738354
1.7294
1.83998
1.07244
2.00577
2.15142
0.85615
1.07299
2.00578
2.15152
1.44233
2.17929
2.24473
1.35402
1.44226
2.17931
2.24469
1.51619
2.31452
2.35187
1.19537
1.51614
2.31447
2.35178
1.45534
1.18549
1.97736
0.380898
1.45167
1.18989
1.97683
1.30408
0.551895
0.393072
0.393072
0.512842
0.633683
0.512862
0.633472
0.740831
0.822608
0.740764
0.749779
0.902963
1.01627
1.1814
1.18338
0.577638
1.40747
1.61158
0.392663
0.577563
1.40726
1.61154
0.738366
1.72938
1.83994
0.592606
0.738359
1.72936
1.83991
1.07236
2.00579
2.15159
0.856194
1.07292
2.00581
2.15167
1.44226
2.17935
2.24479
1.35396
2.17938
2.24476
1.51615
2.31459
2.35179
1.44947
1.19517
1.97553
0.388565
1.44631
1.20165
1.97603
0.393067
0.393072
0.512868
0.633652
1.18005
1.18237
0.577676
1.40702
1.61151
0.392707
0.577594
1.4068
1.61146
0.738373
1.72935
1.83989
0.592621
0.738365
1.72933
1.83987
1.0723
2.00582
2.15172
1.44482
1.20855
1.97565
0.395948
1.44231
1.21629
1.97702
1.17915
1.40655
1.44156
2.57526
2.6286
1.76492
1.84148
2.48052
2.55423
0.476524
0.4886
0.472783
0.488714
0.406569
0.440702
0.420902
0.427908
0.737008
1.20326
0.806359
1.17507
0.781308
1.1534
0.762947
0.436759
0.178724
0.434142
0.170685
0.414368
0.446733
0.195333
0.0825243
0.0543178
0.648957
0.370329
0.342893
0.322304
0.277964
0.197419
0.225754
0.245929
0.233439
0.397413
0.379828
0.770826
0.221382
0.408598
0.399501
0.26976
0.260511
0.245722
0.773288
0.418317
0.423462
0.41455
0.412604
0.249836
0.302888
0.283964
0.523583
0.499907
0.489907
0.532183
0.272206
0.274445
0.250731
0.423486
0.435513
0.760889
0.250114
0.428754
0.447834
0.278334
0.275975
0.251518
0.764388
0.442216
0.474897
0.435575
0.461425
0.253455
0.316304
0.3144
0.558504
0.524761
0.524312
0.568341
0.280642
0.283699
0.259781
0.450073
0.489117
0.768076
0.256079
0.457486
0.50282
0.29045
0.286787
0.263992
0.77605
0.473605
0.530063
0.465854
0.516854
0.268829
0.327302
0.324096
0.598552
0.533718
0.530797
0.60843
0.294218
0.298315
0.279199
0.482176
0.543407
0.789419
0.273844
0.490026
0.555736
0.30673
0.302407
0.284431
0.799701
0.506317
0.57919
0.498567
0.568025
0.289928
0.34165
0.337976
0.636247
0.548005
0.544284
0.644817
0.310877
0.315259
0.30047
0.514707
0.590339
0.817641
0.2951
0.522257
0.600319
0.323669
0.31934
0.305334
0.828777
0.53762
0.61903
0.530379
0.61026
0.310415
0.327578
0.331752
0.319662
0.545426
0.627891
0.847912
0.314947
0.552324
0.635594
0.33948
0.335504
0.323829
0.859067
0.566248
0.650155
0.559753
0.643436
0.328145
0.343054
0.346814
0.335757
0.573292
0.65713
0.877513
0.331879
0.579393
0.663034
0.0667162
0.418047
0.407758
0.65671
0.159428
0.360167
0.424429
0.196309
0.190688
0.265408
0.271291
0.174967
0.179347
0.258374
0.237049
0.242476
0.066351
0.169275
0.207456
0.273103
0.263925
0.229125
0.290202
0.16809
0.164191
0.184078
0.192347
0.167413
0.16393
0.174312
0.200683
0.177308
0.188876
0.19216
0.198205
0.196639
0.193375
0.206041
0.199326
0.195299
0.195569
0.203963
0.196111
0.196356
0.196057
0.19726
0.20613
0.194774
0.194803
0.195889
0.203382
0.194645
0.194413
0.20358
0.196256
0.194964
0.194556
0.20528
0.19812
0.194338
0.194707
0.197059
0.20426
0.194924
0.195387
0.199388
0.206516
0.195941
0.195432
0.207938
0.200815
0.197348
0.196753
0.211149
0.203865
0.196041
0.196592
0.202326
0.209525
0.197521
0.198158
0.205409
0.212779
0.198983
0.198321
0.214383
0.206927
0.200593
0.199934
0.217446
0.209822
0.199133
0.199801
0.208405
0.215946
0.16881
0.164735
0.192933
0.18227
0.170388
0.176875
0.268149
0.259489
0.31377
0.300798
0.168498
0.295252
0.193375
0.246561
0.201194
0.0609362
0.187123
0.0842596
0.215875
0.497626
0.46088
0.944602
0.62307
0.612806
0.964868
0.587021
0.427641
0.365155
0.356771
1.19079
0.789724
0.791687
0.891808
0.541024
0.0964238
0.149672
0.183837
0.0511818
0.0718783
0.180722
0.25029
0.199133
0.13724
0.239535
0.191569
0.0915917
0.389015
0.389001
0.731065
0.879362
0.530804
0.391935
0.530546
0.730812
0.881017
1.02691
0.610778
0.990882
0.593114
0.610482
0.990215
1.02647
1.85533
2.49508
2.60456
1.73756
1.85472
2.49349
2.60277
0.388999
0.388982
0.878399
0.530494
0.730666
0.392273
0.880098
0.530245
0.730482
1.02523
0.610487
0.989182
0.592694
1.02473
0.610212
0.988566
1.8544
2.49225
2.60266
1.73653
1.85383
2.49105
2.60095
0.517398
0.319901
0.522081
0.628206
0.972747
0.975061
0.629544
0.496881
0.493955
0.496934
0.502706
1.91564
2.57782
2.64636
1.83944
1.91576
2.57352
2.6451
0.38899
0.388972
0.878214
0.530392
0.730627
0.392308
0.879859
0.530162
0.730544
1.0248
0.610319
0.988824
0.59256
1.02419
0.610175
0.988301
1.8537
2.49058
2.60134
1.73604
1.85331
2.49003
2.6
0.518082
0.355922
0.519815
0.957098
0.630322
0.959203
0.632391
0.50991
0.522078
0.505986
0.528665
1.91351
2.56937
2.64154
1.84313
1.91163
2.5654
2.63788
0.388986
0.388968
0.878291
0.530384
0.730911
0.392348
0.879908
0.530178
0.730868
1.02475
0.6103
0.988898
0.592535
1.02414
0.610159
0.988367
1.85333
2.49002
2.60079
1.73583
1.85304
2.48975
2.59964
0.530229
0.36313
0.535541
0.947193
0.639862
0.946823
0.643156
0.521831
0.53208
0.51996
0.534399
1.91069
2.56282
2.63486
1.84951
1.91052
2.56068
2.63212
0.388986
0.388966
0.878491
0.530477
0.731266
0.392409
0.880094
0.530289
0.731211
1.02475
0.610258
0.988998
0.592551
1.02415
0.610115
0.988452
1.85314
2.4899
2.60061
1.73573
1.85289
2.48971
2.59951
0.551587
0.36973
0.557601
0.945778
0.652028
0.943607
0.65533
0.531849
0.543119
0.529002
0.546446
1.91144
2.5598
2.63005
1.85862
1.91307
2.55935
2.62842
0.388985
0.388964
0.878694
0.530619
0.73152
0.392514
0.880303
0.530434
0.731428
1.02475
0.610221
0.98907
0.592577
1.02416
0.610083
0.988511
1.85303
2.48991
2.60055
1.73569
1.85281
2.48973
2.59947
0.574034
0.377067
0.57978
0.950109
0.663676
0.946745
0.666711
1.91567
2.56
2.62752
2.56097
2.62713
0.878826
0.530752
0.731623
0.392621
0.880458
0.530558
0.731494
1.02476
0.610207
0.989117
0.592602
1.02418
0.610077
0.988552
2.48995
2.60055
0.595004
0.384748
0.60024
0.958064
0.674234
0.953956
0.677007
0.878872
0.530845
0.73159
0.392694
0.880523
0.530639
0.731432
1.02477
0.610212
0.989147
0.59262
1.02418
0.610086
0.988577
0.613972
0.392305
0.618696
0.968161
0.683828
0.963613
0.686396
0.87884
0.53089
0.731458
0.392709
0.880508
0.530674
0.731282
0.692663
0.393366
0.393336
0.574439
0.513551
0.574269
0.605872
0.634051
0.605632
0.513336
0.573994
0.57428
0.634208
0.605306
0.605666
0.389835
0.38334
0.718543
0.741576
0.383351
0.717949
0.389715
0.397497
0.484689
0.762266
0.823504
0.484626
0.761538
0.397381
0.389689
0.741383
0.383317
0.717646
0.383312
0.718245
0.389793
0.397365
0.823292
0.484491
0.761173
0.484569
0.761932
0.397471
0.401507
0.685569
0.750409
0.401479
0.685384
0.405573
0.544719
0.779919
0.903978
0.54474
0.779826
0.405606
0.750379
0.401413
0.685119
0.401425
0.685391
0.405593
0.903328
0.544628
0.779449
0.544632
0.779555
0.405526
0.501329
0.401467
0.501346
0.401503
0.729096
0.607149
1.13072
1.0173
0.607024
1.13017
0.729156
0.83643
0.739945
1.2126
1.19019
1.21179
0.836545
0.739823
0.388997
0.389013
0.501331
0.401501
0.501305
0.401465
0.729092
1.01665
0.607
1.12979
0.60715
1.1304
0.729009
0.836476
1.19115
0.739768
1.21145
1.21236
0.83633
0.7399
0.587329
0.427276
0.425792
0.586703
0.366859
0.363696
0.783689
0.890638
1.19383
0.785409
0.541696
0.543103
0.891414
0.426
0.589058
0.588013
0.428324
0.397621
0.379509
1.19096
0.794382
0.789448
0.553086
0.892374
0.891176
0.560843
0.94311
0.569011
0.966585
0.577969
0.568734
0.965688
0.944793
0.88052
0.391926
0.530366
0.730644
0.530641
0.730857
0.878767
0.944309
0.577914
0.56851
0.964742
0.568808
0.965764
0.942605
1.09024
0.643266
1.169
0.73996
0.642912
1.16813
1.08992
1.02566
0.593008
0.610308
0.989141
0.610682
0.989927
1.02595
1.08833
0.739556
0.642709
1.16576
0.643199
1.16665
1.08857
0.393159
0.393148
0.57405
0.512995
0.573854
0.605397
0.633526
0.605178
0.512937
0.57382
0.573904
0.633725
0.605142
0.605274
0.389711
0.38325
0.718102
0.740974
0.389604
0.383266
0.717531
0.397413
0.484469
0.761725
0.822715
0.3973
0.484432
0.760977
0.389534
0.740963
0.383245
0.717523
0.38323
0.718089
0.389674
0.397248
0.822769
0.484403
0.760897
0.484432
0.761639
0.397378
0.401369
0.685179
0.750253
0.401383
0.684982
0.405487
0.544545
0.77928
0.903317
0.405542
0.544564
0.779283
0.750217
0.401401
0.684958
0.401375
0.685062
0.4055
0.902918
0.544523
0.779218
0.5445
0.779183
0.405466
0.501298
0.401456
0.501314
0.401491
0.728957
0.607087
1.13015
1.01661
0.729022
0.606966
1.1296
0.836279
0.739868
1.21214
1.18987
0.8364
1.2113
0.739746
0.388977
0.388995
0.501307
0.401485
0.501283
0.401451
0.728981
1.01623
0.606949
1.12946
0.607046
1.13004
0.728912
0.836355
1.19094
0.73971
1.21113
1.21202
0.836222
0.73984
0.433877
0.590498
0.431975
0.590293
0.394907
0.411952
0.795094
0.548803
0.89213
1.19429
0.556989
0.893027
0.794897
0.435074
0.59036
0.590698
0.435903
0.417658
0.417806
0.54781
1.19056
0.893424
0.792662
0.892629
0.793045
0.544384
0.942296
0.568631
0.965093
0.577557
0.944008
0.568378
0.964214
0.879909
0.392205
0.530186
0.730452
0.530425
0.730586
0.878247
0.943909
0.577597
0.56831
0.964001
0.568545
0.964832
0.942197
1.08771
0.642899
1.16492
0.738829
1.08714
0.642565
1.16456
1.02433
0.592687
0.61017
0.988329
0.610357
0.988896
1.0249
1.08669
0.738694
0.642496
1.16413
0.642743
1.16428
1.08737
0.340781
0.518759
0.52016
0.968892
0.629579
0.628942
0.965993
0.458415
0.442478
0.471679
0.45369
0.819323
1.18355
0.777174
0.786004
1.23286
0.827085
1.18371
0.499632
0.515243
0.508846
0.502516
0.490512
0.481817
0.463445
0.471813
0.792842
1.23312
0.838838
1.18428
0.833127
1.18448
0.798924
0.393131
0.393132
0.573876
0.512861
0.573833
0.605235
0.633501
0.605166
0.512838
0.573844
0.573888
0.633699
0.605183
0.605255
0.38966
0.383227
0.718146
0.740879
0.389496
0.383244
0.717581
0.397356
0.484419
0.76163
0.822568
0.397211
0.484405
0.760893
0.38949
0.740907
0.383256
0.717628
0.38324
0.718203
0.389658
0.397198
0.822685
0.484399
0.760896
0.484419
0.761635
0.39735
0.401403
0.68504
0.750097
0.401426
0.684976
0.405456
0.544481
0.779165
0.903203
0.405476
0.544517
0.779227
0.750065
0.401448
0.684999
0.40143
0.685059
0.405474
0.902892
0.544506
0.779223
0.544475
0.779171
0.405457
0.501285
0.40144
0.501299
0.401478
0.728899
0.607009
1.12999
1.01648
0.728954
0.606926
1.12945
0.836214
0.739834
1.21197
1.18978
0.836325
1.21113
0.739713
0.388973
0.38899
0.501297
0.401475
0.501275
0.401437
0.728939
1.0162
0.606919
1.1294
0.606996
1.12997
0.728877
0.83631
1.19092
0.739696
1.21105
1.21194
0.836184
0.739824
0.437114
0.590788
0.436563
0.590533
0.417087
0.415983
0.544124
0.892955
0.791555
1.19222
0.544852
0.893649
0.791883
0.437681
0.590739
0.590938
0.438086
0.414314
0.415252
0.54498
1.18848
0.89367
0.792028
0.893078
0.79125
0.54425
0.942239
0.568519
0.964779
0.57745
0.94395
0.568305
0.963978
0.879859
0.392261
0.53015
0.730678
0.530375
0.730743
0.878215
0.94403
0.577539
0.568321
0.963982
0.568527
0.964802
0.942316
1.08732
0.642653
1.16414
0.73851
1.08659
0.642457
1.16404
1.02415
0.592601
0.610175
0.988305
0.610318
0.988849
1.02474
1.08661
0.738471
0.642442
1.16402
0.642625
1.16414
1.08731
0.358143
0.526174
0.522127
0.951702
0.637305
0.634368
0.9509
0.498413
0.50616
0.487591
0.479806
0.811006
0.844885
1.18549
1.2348
0.804981
0.851037
1.18699
0.514148
0.530269
0.529062
0.518516
0.511331
0.509037
0.494318
0.497456
0.817168
1.23728
0.864063
1.19252
0.857543
1.18969
0.823272
0.393126
0.393121
0.573887
0.512816
0.573844
0.60526
0.633525
0.60519
0.512806
0.573835
0.573889
0.633725
0.60519
0.605274
0.389662
0.383248
0.71827
0.740858
0.389489
0.383267
0.717692
0.397347
0.484422
0.761662
0.82254
0.397188
0.484411
0.760923
0.3895
0.740891
0.38328
0.71773
0.383264
0.718319
0.389673
0.397194
0.822665
0.484404
0.760935
0.484425
0.761678
0.397356
0.401446
0.685071
0.749963
0.401458
0.685014
0.405459
0.544475
0.779183
0.90321
0.405472
0.544516
0.779246
0.749938
0.401465
0.685027
0.401456
0.685089
0.405482
0.902918
0.544513
0.779243
0.544479
0.779193
0.40547
0.501281
0.401429
0.501293
0.40147
0.728877
0.606976
1.12997
1.01648
0.728929
0.606905
1.12942
0.836192
0.739829
1.21193
1.1898
0.8363
1.21109
0.739711
0.38897
0.388989
0.501293
0.401469
0.501273
0.40143
0.728924
1.01622
0.606905
1.12939
0.606975
1.12997
0.728865
0.836297
1.19096
0.739703
1.21103
1.21193
0.836173
0.739827
0.438784
0.59109
0.438535
0.590899
0.413888
0.413195
0.544812
0.893033
0.791729
1.18999
0.545604
0.893561
0.792756
0.439116
0.591027
0.591237
0.439227
0.412666
0.413091
0.546194
1.18631
0.893333
0.793754
0.892862
0.792619
0.545356
0.942428
0.568561
0.964851
0.577442
0.944148
0.568365
0.964038
0.87999
0.392299
0.53022
0.731039
0.53042
0.731093
0.878371
0.944246
0.577544
0.568405
0.964063
0.568603
0.964896
0.94252
1.08738
0.642597
1.16418
0.738406
1.08666
0.642425
1.16407
1.02414
0.592592
0.610138
0.988393
0.610286
0.988952
1.02472
1.08672
0.738394
0.64241
1.16408
0.642588
1.16422
1.0874
0.364882
0.546318
0.540459
0.944254
0.649277
0.645909
0.945622
0.514238
0.517529
0.504665
0.500939
0.83567
0.870721
1.19649
1.24686
0.829512
0.877274
1.20033
0.523955
0.540032
0.537044
0.526435
0.524945
0.52117
0.508537
0.512514
0.841846
1.25126
0.890119
1.20943
0.883819
1.20503
0.847839
0.393107
0.393099
0.573871
0.512811
0.573817
0.605263
0.633531
0.60518
0.512808
0.573798
0.57386
0.633727
0.605166
0.605259
0.389682
0.38327
0.718369
0.740836
0.389505
0.383287
0.717779
0.397358
0.484425
0.761707
0.822519
0.397194
0.484411
0.760963
0.389518
0.740868
0.383292
0.7178
0.383279
0.718399
0.389692
0.397204
0.822643
0.484401
0.760969
0.484423
0.761717
0.397364
0.401456
0.685091
0.749867
0.401461
0.685028
0.405475
0.544485
0.779201
0.903231
0.405487
0.544526
0.779262
0.749852
0.401456
0.685026
0.401454
0.685096
0.405499
0.902942
0.544524
0.779251
0.544492
0.779206
0.405486
0.50128
0.401424
0.501293
0.401466
0.72887
0.606964
1.12997
1.0165
0.72892
0.606898
1.12942
0.836187
0.739839
1.21192
1.18983
0.836293
1.21107
0.739721
0.388969
0.388989
0.501295
0.401466
0.501273
0.401426
0.72892
1.01625
0.606903
1.12939
0.606968
1.12997
0.728862
0.836294
1.19099
0.739714
1.21102
1.21192
0.836171
0.73984
0.439456
0.591346
0.439441
0.591132
0.412831
0.412642
0.545814
0.892606
0.793703
1.18777
0.546649
0.893047
0.79488
0.439582
0.591198
0.591442
0.439514
0.413014
0.41302
0.547016
1.18416
0.892703
0.796036
0.892288
0.79485
0.546169
0.942622
0.568652
0.964943
0.577468
0.944356
0.56846
0.964118
0.880201
0.392379
0.530355
0.731327
0.530545
0.731411
0.878584
0.944434
0.577575
0.568502
0.964136
0.5687
0.964979
0.942692
1.08745
0.642563
1.16426
0.73837
1.08676
0.642396
1.16413
1.02416
0.592613
0.610096
0.988465
0.610245
0.989039
1.02473
1.0868
0.738368
0.642385
1.16412
0.642556
1.16428
1.08746
0.371676
0.568842
0.562908
0.944539
0.661156
0.657981
0.947386
0.528902
0.532859
0.520486
0.516472
0.859595
0.896415
1.21469
1.26472
0.853831
0.902412
1.21948
0.534681
0.553237
0.549786
0.537726
0.540796
0.536891
0.524388
0.528325
0.865283
1.26992
0.913832
1.22981
0.908288
1.22493
0.870709
0.393086
0.39308
0.573834
0.512829
0.573778
0.605236
0.633516
0.605148
0.512829
0.573761
0.573821
0.633705
0.605128
0.605222
0.389698
0.383278
0.718432
0.740812
0.389521
0.383293
0.717834
0.397367
0.484419
0.761737
0.822495
0.397205
0.484404
0.76099
0.389531
0.740843
0.383295
0.717845
0.383279
0.718449
0.389705
0.397213
0.822618
0.484391
0.760991
0.484416
0.761742
0.397373
0.401446
0.685086
0.749806
0.401447
0.685018
0.40549
0.544497
0.779209
0.903248
0.405502
0.544536
0.779266
0.749799
0.40144
0.685007
0.401439
0.685083
0.405511
0.902957
0.544535
0.779249
0.544503
0.779206
0.405496
0.501282
0.401421
0.501294
0.401465
0.728871
0.606963
1.12998
1.01652
0.72892
0.6069
1.12942
0.836188
0.739854
1.21192
1.18986
0.836294
1.21107
0.739736
0.388968
0.501296
0.401425
0.728921
1.01626
0.606907
1.12939
0.606971
1.12998
0.728864
0.836296
1.19102
0.739729
1.21101
1.21192
0.836173
0.739855
0.439462
0.591482
0.43957
0.591228
0.413543
0.413683
0.546439
0.891943
0.796022
1.18574
0.54726
0.892354
0.797207
0.43948
0.591215
0.591499
0.439338
0.414567
0.414335
0.547485
1.18223
0.891983
0.798355
0.891582
0.797182
0.546675
0.942774
0.568749
0.965019
0.577508
0.944521
0.568554
0.964189
0.88039
0.392494
0.530495
0.731469
0.530689
0.731589
0.878758
0.944579
0.577617
0.568591
0.964202
0.568792
0.965051
0.942824
1.0875
0.642537
1.16431
0.738362
1.08682
0.642376
1.16416
1.02417
0.59264
0.610078
0.988514
0.610218
0.989097
1.02474
1.08684
0.738364
0.642373
1.16415
0.642539
1.16432
1.08749
0.379147
0.590254
0.584761
0.949958
0.671984
0.669088
0.953754
0.544706
0.532031
0.393074
0.39307
0.573798
0.512854
0.573746
0.605194
0.633487
0.605108
0.512855
0.573735
0.573791
0.633675
0.60509
0.605181
0.389708
0.383274
0.718474
0.740787
0.389531
0.383289
0.717871
0.397374
0.484409
0.761757
0.822472
0.397213
0.484395
0.761007
0.389539
0.740819
0.383287
0.717876
0.383271
0.718484
0.389713
0.40143
0.685066
0.749769
0.40143
0.684994
0.405497
0.544506
0.779203
0.903255
0.40551
0.544545
0.779258
0.728875
0.606967
1.12998
1.01653
0.728923
0.606905
1.12942
0.439184
0.591457
0.439333
0.591166
0.415294
0.4156
0.546861
0.891225
0.798339
1.18406
0.547643
0.891637
0.799509
0.439169
0.591077
0.591392
0.439011
0.416733
0.416373
0.547808
1.18066
0.891293
0.80064
0.890878
0.799482
0.547043
0.942886
0.568835
0.965084
0.57755
0.944645
0.568636
0.964249
0.8805
0.392596
0.530599
0.731466
0.530804
0.73162
0.878846
0.944681
0.577658
0.568664
0.964255
0.56887
0.965108
0.942914
1.08752
0.642529
1.16434
0.738365
1.08685
0.642373
1.16419
1.02418
0.592664
0.610081
0.988547
0.610216
0.989134
1.02475
1.08685
0.738369
0.642375
1.16417
0.642537
1.16434
1.0875
0.386836
0.60971
0.60474
0.958558
0.681799
0.679137
0.962932
0.393071
0.393068
0.573775
0.51288
0.573727
0.605156
0.633457
0.605073
0.438848
0.591276
0.438996
0.590958
0.417529
0.417935
0.547193
0.890558
0.800624
1.18281
0.547929
0.890992
0.801783
0.438833
0.590819
0.591154
0.438692
0.419188
0.418751
0.548069
1.17954
0.890706
0.802915
0.890261
0.80176
0.54734
0.942952
0.568902
0.965132
0.577585
0.944724
0.568697
0.964291
0.880524
0.392651
0.530656
0.731355
0.530873
0.731533
0.87885
0.944738
0.577692
0.568713
0.964288
0.568925
0.965146
0.94296
1.08752
0.642532
1.16435
0.738371
1.08685
0.642378
1.1642
1.02418
0.592681
0.610093
0.988566
0.610225
0.989156
1.02475
1.08685
0.738376
0.642382
1.16419
0.642543
1.16436
1.0875
0.394304
0.6272
0.622718
0.968998
0.690809
0.688329
0.973701
0.438563
0.591
0.438684
0.590665
0.420008
0.547458
0.890004
0.802907
1.18203
0.548163
0.890474
0.804068
1.37481
0.957485
1.26287
0.858833
0.956996
1.26149
1.37512
1.61533
1.17586
1.60024
1.19919
1.17555
1.59864
1.61498
2.31777
2.56276
2.94693
2.02053
2.31633
2.55808
2.94559
2.63636
3.18379
3.36124
2.49598
2.63436
3.1819
3.35939
1.23738
0.870945
1.19878
0.853906
0.733409
1.15194
1.27623
2.50467
2.43292
2.68985
1.95449
2.53317
2.56648
2.78798
2.15669
2.65992
2.83521
1.98566
2.15549
2.67778
2.84177
1.37086
0.955036
1.25679
0.856706
1.3705
0.954901
1.25628
1.61237
1.174
1.59421
1.19675
1.61167
1.17391
1.59334
2.31449
2.56514
2.94184
2.0179
2.31337
2.56402
2.94072
2.63194