/*--------------------------------*- C++ -*----------------------------------*\
  =========                 |
  \\      /  F ield         | OpenFOAM: The Open Source CFD Toolbox
   \\    /   O peration     | Website:  https://openfoam.org
    \\  /    A nd           | Version:  10
     \\/     M anipulation  |
\*---------------------------------------------------------------------------*/
FoamFile
{
    format      ascii;
    class       volScalarField;
    location    "2000";
    object      omega;
}
// * * * * * * * * * * * * * * * * * * * * * * * * * * * * * * * * * * * * * //

dimensions      [0 0 -1 0 0 0 0];

internalField   nonuniform List<scalar> 
8643
(
5.08682
3.85134
2.41879
1.49642
1.70816
1.15542
10.6951
1.02213
0.829142
0.718048
0.568432
0.621131
0.508311
2.65094
1.02972
0.554553
0.467643
0.418825
0.395512
0.374092
0.361772
1.32426
1.11976
0.807788
0.538901
0.419863
0.363457
0.328562
0.308267
0.292421
0.28334
0.561661
0.535199
0.478705
0.392046
0.335818
0.299084
0.273182
0.255757
0.242654
0.234947
5.08525
3.85408
2.42534
1.49947
1.71203
1.15629
7.24181
1.0242
0.83053
0.719385
0.56902
0.621961
0.508578
2.72471
0.786621
0.556007
0.467997
0.419201
0.395723
0.374307
0.36189
1.2018
1.07305
0.691578
0.530976
0.420287
0.363579
0.328678
0.308361
0.292499
0.283402
0.559234
0.52959
0.471727
0.389248
0.335743
0.299105
0.273239
0.255806
0.242696
0.234983
5.08472
3.85477
2.42688
1.50051
1.71336
1.15675
6.00977
1.02541
0.83146
0.720277
0.569347
0.622472
0.508768
2.7155
0.784743
0.556722
0.468256
0.419429
0.395894
0.374452
0.362001
1.18868
1.06122
0.688501
0.52976
0.42058
0.363716
0.328789
0.308453
0.292578
0.283468
0.558701
0.528123
0.470709
0.389769
0.33582
0.299173
0.273303
0.255861
0.242743
0.235025
5.08475
3.85476
2.42714
1.50085
1.7138
1.15692
5.51018
1.02591
0.831829
0.720639
0.569493
0.622737
0.508878
2.70111
0.782435
0.557177
0.468413
0.419537
0.396
0.374538
0.362077
1.17694
1.05525
0.685413
0.528439
0.420797
0.363817
0.328868
0.308521
0.292638
0.28352
0.558063
0.526857
0.469585
0.390138
0.335918
0.299228
0.273352
0.255906
0.242783
0.23506
5.0853
3.85475
2.42713
1.50098
1.71397
1.15698
5.28719
1.02612
0.831977
0.720776
0.569562
0.622859
0.508935
2.68943
0.779774
0.557447
0.468507
0.419584
0.396061
0.374589
0.362125
1.1668
1.04947
0.682394
0.527059
0.420926
0.363883
0.328916
0.308563
0.292677
0.283555
0.557311
0.525656
0.468439
0.390343
0.335998
0.299264
0.273385
0.255936
0.24281
0.235086
5.08561
3.85483
2.42709
1.50105
1.71402
1.157
5.1762
1.02614
0.832043
0.720833
0.569596
0.622915
0.508969
0.776998
0.557586
0.468562
0.419603
0.396094
0.374615
0.362154
1.0442
0.679505
0.525673
0.420984
0.363922
0.328944
0.308589
0.292701
0.283577
0.556507
0.5245
0.467293
0.39042
0.33606
0.299287
0.273405
0.255955
0.242827
0.235102
5.08553
3.8549
2.42705
1.50107
1.71404
1.157
5.10986
1.02604
0.832074
0.720858
0.569614
0.622939
0.508986
0.774311
0.557628
0.468597
0.41961
0.396112
0.374628
0.362171
0.524312
0.42099
0.363948
0.328958
0.308603
0.292716
0.28359
0.390397
0.336107
0.299302
0.273416
0.255966
0.242838
0.235112
5.0852
3.85494
2.42702
5.06312
1.02586
0.832088
0.720863
0.771862
0.557597
0.468619
0.41961
0.522997
0.420958
0.363964
0.328966
0.390297
0.336143
0.299312
0.273422
5.08476
5.02609
0.975442
0.554807
0.735819
0.535121
0.419453
0.570416
0.531354
0.471082
0.391108
0.335833
6.70188
7.40697
2.16721
1.9267
1.86338
1.77987
4.09563
1.7693
1.31848
4.43
1.70795
1.32769
7.00909
6.12403
6.06506
5.82412
5.80932
5.75538
5.75289
5.72805
6.56823
4.36218
3.22808
4.76177
2.67523
5.69447
6.04568
5.84958
7.30579
5.08232
10.5439
5.04428
11.7999
5.97801
4.72972
4.66485
2.49876
4.51899
2.36219
4.24072
1.66628
1.26449
3.96874
1.62768
1.25212
4.50751
2.32594
4.42517
2.24839
3.94688
1.62761
1.25163
3.83698
1.61982
1.24615
4.41948
2.21507
4.38642
2.15535
3.82323
1.61773
1.24465
3.77815
1.60635
1.23765
4.38572
2.13059
4.37141
2.09528
3.77221
1.60403
1.23592
3.76161
1.59374
1.22898
2.07823
2.06173
1.5921
1.22746
2.04973
2.04452
2.03522
2.86359
4.30941
2.78927
2.19302
1.94447
4.01795
1.75991
1.25123
16.7398
7.67751
16.8705
7.70344
14.9503
10.7586
4.92131
5.14445
6.39383
6.23872
5.90884
7.14936
9.98951
6.42741
9.16478
6.33969
8.9085
9.01095
8.87652
5.9273
8.89714
5.89455
9.04191
8.95931
9.12211
5.77723
9.18785
5.77127
9.26376
9.23513
9.27641
5.74159
9.27653
5.73954
9.25153
9.26699
7.19102
12.3396
7.12445
12.6052
16.5912
9.77226
12.0375
13.0208
7.90877
2.01716
1.26133
1.10428
2.79904
1.8268
1.24386
1.04887
1.21151
0.850544
0.833836
1.21463
1.18173
0.82975
0.817445
1.74459
1.20728
1.02184
2.71759
1.70672
1.20692
1.01481
1.67408
1.20656
1.00909
2.7048
1.6434
1.20564
1.00381
1.615
1.20392
0.997508
2.69172
1.58995
1.20206
0.992039
1.56798
1.19977
0.985805
2.68453
1.54954
1.19765
0.980677
1.53397
1.19544
0.975013
1.52141
0.97065
1.51101
0.965831
1.50293
0.962394
1.49628
0.958493
1.87214
1.0888
2.60528
1.82113
1.20604
1.05262
14.0613
11.0992
7.27178
15.6019
13.8158
7.59665
16.6801
12.5441
17.4785
12.7239
2.93525
2.74796
3.3622
3.69954
2.27259
2.01861
3.20415
2.10526
3.94265
3.22603
3.08028
2.12152
1.86237
2.9572
1.99884
3.47509
3.39539
7.04417
2.42793
4.53737
7.25385
2.46009
3.38879
3.37988
4.54541
6.9129
2.46018
6.90733
2.47037
3.38745
14.664
10.5143
6.70781
13.3179
9.42606
6.18963
11.1451
8.01546
11.3246
8.01059
11.0257
7.82425
6.01244
10.9169
7.88728
5.8437
10.7095
7.88739
10.7329
7.74652
10.7141
7.78454
5.79596
10.6961
7.92869
5.76083
10.6639
8.01723
10.6816
7.88406
10.6681
7.89998
5.74814
10.6485
8.02812
5.73291
10.5876
8.0178
10.6106
7.9009
6.69069
13.5954
10.631
14.5021
11.4417
4.77846
4.08064
6.08624
4.84865
6.6049
7.65292
9.47938
5.88768
6.93694
9.86691
6.76854
7.06579
7.10282
6.91165
8.32504
13.7951
13.769
7.18955
16.5225
8.12994
7.08063
4.56108
6.07643
5.74374
4.55578
5.36346
5.51812
5.82621
2.28784
4.03926
3.02015
5.35991
2.89898
2.2516
4.02038
4.88964
5.08788
2.84583
2.24055
2.24633
2.80711
4.46529
5.25688
5.1853
4.45562
5.10611
5.13721
4.73658
3.89464
4.61723
2.73868
2.23352
2.77218
2.22559
3.87571
4.46217
4.52738
2.7075
2.20909
2.21751
2.67879
4.4005
5.0851
5.07103
4.39782
5.05362
5.06077
4.41717
3.79941
4.38796
2.63042
2.20089
2.6531
2.19297
3.79029
4.36165
4.3707
2.61106
2.17935
2.18586
2.59458
4.3779
5.04742
5.04234
4.37777
5.03232
5.03709
4.358
3.76718
4.35755
2.56973
2.17374
2.58095
2.16892
3.76293
4.36064
4.35883
2.56086
2.16192
2.16512
2.55372
4.53843
6.51849
4.47078
4.17714
5.35004
5.07722
5.54917
6.23726
7.33979
6.92016
6.6934
6.75517
7.78394
6.30285
6.10991
4.32855
6.53176
2.42391
9.7305
5.19985
10.8555
4.01158
4.31674
5.98303
4.28862
6.2908
2.26907
6.42974
3.0255
3.33341
2.39598
12.9323
26.2961
17.1183
7.67125
17.2386
14.253
16.9634
14.7073
7.64503
17.7978
13.7744
17.5973
13.0961
6.52611
6.33656
4.78671
4.63965
6.7277
4.54919
5.42792
8.04324
6.70726
9.15815
7.00835
10.16
6.48772
7.73395
6.53662
12.1118
8.63503
12.6071
8.84194
6.26133
11.7981
8.32686
11.5226
8.26003
5.96703
10.794
7.84485
10.8567
7.74012
5.86624
10.7725
7.72457
10.7363
7.85344
5.78652
10.6865
7.96682
10.703
7.82444
5.76452
10.6931
7.85865
10.6765
7.99688
5.74605
10.6297
8.03082
10.6512
7.90716
5.735
10.6315
7.90696
10.6092
8.02682
7.25471
17.2817
13.0302
17.51
13.6137
6.91744
17.0612
12.6302
16.0633
12.9841
11.7801
13.4454
13.1747
1.79396
0.990116
9.50495
1.36236
1.63378
1.00267
7.98259
10.4826
3.05651
5.26384
3.44286
5.77948
4.43356
12.2677
12.5104
9.64588
9.44865
8.67921
7.35324
7.47867
8.65609
12.1174
10.1535
7.35381
6.94469
7.4283
11.8736
8.30095
1.36458
1.81131
1.00108
8.05889
1.35799
1.68272
0.999072
1.69573
8.19563
9.00854
6.15748
3.4793
3.18472
6.11339
5.84795
9.94661
4.12873
4.48551
2.06597
3.16989
3.15603
2.06481
10.6644
8.82589
10.2951
11.3476
10.2745
7.75589
7.92866
8.11595
17.0104
19.5177
7.59073
5.31182
5.3161
4.27535
3.53726
4.27999
3.5411
2.93041
2.51786
2.93312
2.5203
2.81603
2.2668
2.81674
2.26717
2.04485
1.6715
2.0452
1.67333
1.70105
1.69701
3.86521
1.47726
1.30725
5.08593
3.86788
1.47835
1.30851
2.8067
1.2275
1.12392
3.8537
2.8105
1.22868
1.12508
1.98013
1.01559
0.947968
2.42412
1.98349
1.01716
0.949981
1.39658
0.924921
0.882262
1.49817
1.3979
0.926193
0.883454
1.32513
0.85918
0.830964
1.71133
1.32613
0.860342
0.831494
4.57549
10.5145
4.53878
3.24741
2.08688
2.06576
3.23954
5.31659
5.31653
4.28081
3.54225
4.28142
3.54284
2.93349
2.52049
2.93433
2.52162
2.81702
2.2684
2.81772
2.26798
2.0462
1.67189
2.04591
1.6736
1.70174
1.69963
3.86799
1.47941
1.30954
5.08514
3.86904
1.48011
1.31024
2.81148
1.22962
1.12612
3.855
2.81278
1.23027
1.12685
1.98561
1.01836
0.951404
2.42675
1.98578
1.01903
0.952102
1.39896
0.927189
0.884246
1.50017
1.39957
0.927944
0.884831
1.32684
0.861181
0.831984
1.71323
1.32726
0.86172
0.832369
1.35773
1.62673
0.997489
6.21176
1.3599
1.61581
0.995925
1.83702
1.75666
1.80311
1.72889
9.43767
5.13702
4.25723
8.40243
3.98145
4.89386
5.31635
5.31605
4.28141
3.54321
4.28125
3.54288
2.93419
2.52127
2.93448
2.5218
2.81786
2.2688
2.81823
2.26814
2.04652
1.67202
2.04601
1.67364
1.70453
1.70184
3.8685
1.48053
1.31062
5.08495
3.86895
1.4808
1.31086
2.81299
1.23065
1.12727
3.8551
2.81334
1.23087
1.12753
1.98697
1.01935
0.952373
2.42712
1.98615
1.01951
0.952455
1.39986
0.92833
0.8851
1.50075
1.40005
0.92854
0.885279
1.32745
0.861956
0.832591
1.7138
1.32759
0.862107
0.832751
1.36169
1.60835
0.99522
5.59891
1.36269
1.5986
0.993521
1.79324
1.7251
1.76716
1.71026
7.17789
6.95964
3.53195
4.52173
3.60739
4.45212
5.31595
5.31597
4.2812
3.54316
4.28106
3.54275
2.93427
2.52137
2.93446
2.52183
2.81828
2.26886
2.81847
2.26817
2.04652
1.672
2.04601
1.67361
1.70639
1.70293
3.86833
1.48097
1.31098
5.08545
3.86886
1.48109
1.31108
2.81337
1.23099
1.12766
3.85508
2.8135
1.23106
1.12774
1.98725
1.01958
0.952452
2.42715
1.98632
1.01961
0.95241
1.40012
0.928627
0.885317
1.50095
1.40021
0.92867
0.88537
1.32764
0.862126
0.832825
1.71402
1.3277
0.862166
0.832895
1.36331
1.58857
0.992564
5.32766
1.36338
1.57832
0.990852
1.7587
1.70607
1.73846
1.69237
6.58056
6.51469
3.33584
4.3137
3.37252
4.28398
5.31595
5.31614
4.28102
3.54302
4.28097
3.54265
2.93423
2.52138
2.9344
2.52184
2.81848
2.26887
2.81857
2.26818
2.04649
1.67196
2.04599
1.67357
1.70722
1.70315
3.86828
1.48117
1.31113
5.08587
3.86894
1.48123
1.31117
2.81348
1.23109
1.12778
3.85514
2.81355
1.23112
1.12781
1.98739
1.01961
0.952357
2.42711
1.98642
1.0196
0.952308
1.40021
0.928677
0.885347
1.50105
1.40027
0.928678
0.88537
1.3277
0.862129
0.832915
1.71409
1.32774
0.862144
0.832954
1.36325
1.56923
0.989905
5.19767
1.36275
1.56081
0.988271
1.73202
1.68911
1.71806
1.6789
6.40316
6.38064
3.24381
4.22634
3.26076
4.21375
5.31614
5.31633
4.28095
3.54293
4.28094
3.54258
2.93416
2.52139
2.93434
2.52185
2.81856
2.26885
2.81861
2.26816
2.04647
1.67192
2.04597
1.67354
1.70726
1.70274
3.86837
1.48126
1.31117
5.08588
3.86902
1.48127
1.31119
2.81352
1.23113
1.12782
3.85522
2.81358
1.23114
1.12784
1.98748
1.01959
0.952259
2.42707
1.98648
1.01958
0.952218
1.40026
0.928665
0.885334
1.50109
1.4003
0.928656
0.885352
1.32773
0.862096
0.832955
1.71411
1.32776
0.862108
0.832981
1.36221
1.55389
0.987403
5.12354
1.36145
1.54782
0.985904
1.67686
4.1876
5.31632
5.31647
4.28093
3.54288
4.28092
3.54255
2.93411
2.5214
2.9343
2.81859
2.26884
2.04644
1.70674
1.70193
3.86844
1.48126
1.31118
5.0856
3.86905
1.48123
1.31119
2.81354
1.23114
1.12784
3.85527
2.81359
1.23115
1.12785
1.98753
1.01956
0.952181
2.42704
1.98651
1.01955
0.952151
1.40028
0.928639
0.885315
1.5011
0.928629
0.885331
1.32774
0.862059
0.832973
1.36074
1.5431
0.985171
5.07316
1.3599
1.53903
0.983835
5.31645
5.31655
4.28091
3.54285
1.70586
1.70093
3.86846
1.48118
1.31117
5.08517
3.86903
1.48112
1.31116
2.81356
1.23114
1.12784
3.85529
2.8136
1.23115
1.12785
1.98756
1.01953
0.952123
1.35918
1.536
0.983259
5.03425
1.35837
1.53335
0.982092
1.70484
1.48104
1.3577
0.832811
0.821812
1.28653
1.23306
0.86643
0.848055
5.23215
4.97416
5.2862
4.98088
5.71858
5.17179
5.48041
5.32462
3.12246
1.91511
2.8649
1.93672
2.98771
1.99345
2.98606
4.90208
12.1644
5.49392
12.0291
5.7406
4.72992
10.7577
15.2146
10.6965
2.96243
4.76985
5.4371
5.61216
6.76951
8.49304
8.90408
7.95741
7.05364
4.31539
4.76082
2.43105
7.52216
4.06472
4.37845
6.91641
7.34817
6.75227
2.38347
3.77447
3.93486
3.89746
4.12397
6.55334
7.47094
7.86774
3.81413
4.61003
4.73676
3.69824
6.60289
6.36762
6.35479
3.66869
3.77843
2.3047
6.42561
3.58298
3.65299
6.06366
6.19217
6.3251
2.2687
3.4489
3.46532
3.50771
3.54745
6.329
6.67071
6.79402
3.4692
4.35046
4.39607
3.41643
5.97127
5.90648
6.38371
3.39788
3.39677
2.19779
6.35034
3.36023
3.34611
5.83114
5.86148
6.41696
2.16864
3.30527
3.27508
3.32753
3.30382
6.45093
6.43072
6.46664
3.30594
4.24155
4.26054
3.2811
5.80936
5.79442
6.50015
3.28512
3.25018
2.12136
6.47708
3.27295
3.23539
5.77326
5.7825
6.51428
2.10079
3.25492
3.21524
3.26087
3.22149
6.52503
6.34561
6.36212
3.23018
4.19493
4.2036
3.21866
5.76429
5.75598
6.52809
3.2474
3.20751
2.07581
6.52756
3.24479
3.20578
5.73816
5.74709
6.5225
2.06164
3.23871
3.20184
3.23968
3.20132
6.51638
5.72833
5.71827
6.49467
3.23452
3.19872
2.05167
6.50519
3.23404
3.20001
5.69632
5.70733
6.48017
2.04125
3.22955
3.19859
3.23008
3.19724
6.46723
5.6843
5.67236
6.43688
3.2253
3.19569
2.03936
6.45093
3.2244
3.19667
11.5427
5.10699
5.70407
3.09225
15.5108
5.79902
5.43747
12.5496
13.1272
9.51753
9.40589
13.9737
13.6576
9.75197
10.5569
10.3829
19.4125
11.3406
12.7115
9.10998
7.64066
8.51287
8.77028
13.86
14.3606
14.0782
13.1139
14.448
14.6979
14.6357
12.3555
13.1431
12.6309
12.4279
13.0792
12.2904
12.4066
12.1864
11.9321
12.0147
12.0654
11.6488
11.59
12.1968
12.1296
11.6824
11.8038
11.9718
11.9398
11.5755
11.6051
11.8956
11.9144
11.6128
11.5922
11.8601
11.8668
11.6637
11.6379
11.8834
11.8727
11.6161
11.6377
11.8571
11.8522
11.6543
11.6852
11.8457
11.8503
11.7002
11.6634
11.8315
11.8364
11.7093
11.6652
11.8435
11.8391
11.6667
11.7075
11.8281
11.8228
11.6601
11.7066
11.8137
11.8192
11.7006
11.6522
11.7944
11.7999
11.6822
11.6315
11.8096
11.8042
11.6426
11.6922
13.978
14.3287
14.6641
14.1687
13.4403
12.9703
9.97616
10.5236
8.68119
8.03469
8.73478
7.7299
8.8509
8.38497
9.30031
22.8738
10.1801
25.2337
9.32129
3.72669
4.09433
2.02393
3.07422
3.15989
1.97936
3.7133
5.14509
5.92581
6.09566
1.6993
2.5451
2.54271
2.35293
3.79289
20.2799
14.0773
9.97785
34.9166
24.9385
10.2688
8.55744
10.6596
17.3635
7.81079
9.60444
21.1916
5.23649
5.23634
2.74317
2.31042
4.03117
5.08765
4.03279
2.74403
2.30651
2.08032
3.75004
2.16432
3.85207
3.75038
2.16574
2.08117
1.07585
0.780596
0.748219
1.15591
1.0762
0.781108
0.748756
5.23682
5.2367
2.31313
4.03366
2.74487
5.08541
2.30904
4.03525
2.74571
2.08371
3.75323
2.16788
3.8546
2.08465
3.75318
2.16916
1.07641
0.78149
0.748777
1.15661
1.07672
0.781875
0.749284
3.51736
6.80219
3.42242
3.0199
1.9582
1.94664
2.99414
4.8002
4.8445
4.76265
4.68992
1.16678
0.826379
0.811165
1.19506
1.16053
0.825996
0.810081
5.23687
5.23677
2.31406
4.0343
2.746
5.08486
2.31014
4.03562
2.74648
2.08466
3.75395
2.16865
3.85505
2.08584
3.75365
2.16978
1.0768
0.782016
0.749159
1.15689
1.07699
0.782189
0.749548
3.30785
5.84367
3.27277
1.94029
2.95193
1.94562
2.93484
4.61941
4.5001
4.64124
4.46408
1.15611
0.82546
0.809696
1.18265
1.15188
0.824703
0.809133
5.23685
5.23675
2.31427
4.03414
2.74592
5.08512
2.31041
4.03542
2.74627
2.08489
3.75399
2.16864
3.85504
2.08605
3.75369
2.1698
1.07697
0.782188
0.749309
1.15699
1.07711
0.782276
0.749648
3.18551
5.43659
3.1601
1.9266
2.88801
1.93365
2.87213
4.57256
4.39944
4.58004
4.38805
1.14769
0.823602
0.808369
1.17166
1.14375
0.82241
0.807473
5.23685
5.23673
2.31424
4.03398
2.74559
5.08566
2.3104
4.03529
2.74597
2.08493
3.75403
2.16857
3.85507
2.0861
3.75375
2.16976
1.07705
0.782227
0.74936
1.15703
1.07716
0.78229
0.749683
3.10698
5.25218
3.09245
1.91104
2.83485
1.91802
2.82295
4.55617
4.36965
4.55903
4.36641
1.13998
0.821041
0.806486
1.16245
1.13663
0.819697
0.805433
5.23685
5.23674
2.31416
4.03388
2.74536
5.08588
2.31032
4.03518
2.74575
2.08494
3.75412
2.16853
3.85515
2.0861
3.75384
2.16974
1.07709
0.782227
0.749375
1.15704
1.07719
0.782283
0.749695
3.06463
5.1563
3.05631
1.89746
2.79669
1.90379
2.78805
1.13356
0.818285
0.804369
0.816989
0.803304
2.31407
4.03374
2.74514
5.08573
2.31023
4.03502
2.74552
2.08493
3.7542
2.16852
3.85521
2.08608
3.75392
2.16974
0.782215
0.749376
3.0412
5.09636
3.03567
1.88666
2.76977
1.8923
2.76331
2.31394
4.03353
2.74484
5.08535
2.31011
4.0348
2.7452
2.08493
3.75426
2.16852
3.85524
2.08608
3.75397
2.16974
3.02582
5.05266
3.02136
1.87827
2.75019
1.88334
2.74509
2.31378
4.03328
2.74446
5.0849
2.30995
4.03455
2.74481
2.73524
5.31339
5.31503
3.93723
4.27686
3.93858
3.75315
3.53825
3.75451
4.27869
3.94163
3.94042
3.54013
3.75764
3.75644
5.59895
5.58063
2.86643
2.93132
5.58109
2.86862
5.59897
5.22986
4.4209
2.65207
2.5188
4.42143
2.65444
5.22918
5.59902
2.93215
5.58189
2.86965
5.58142
2.86741
5.59911
5.23007
2.51943
4.42247
2.65558
4.42193
2.65311
5.23084
5.27207
3.12028
2.81613
5.2721
3.12095
5.1889
4.03413
2.67299
2.26611
4.03405
2.67333
5.18877
2.8164
5.27239
3.12265
5.27224
3.12196
5.18952
2.2677
4.03478
2.67465
4.03475
2.67426
5.18975
4.26496
5.13127
4.26484
5.13124
2.79445
3.59642
1.75642
2.04428
3.59641
1.75723
2.79424
2.45163
2.70121
1.6552
1.67304
1.65629
2.45133
2.70155
5.23653
5.23675
4.26498
5.13127
4.26515
5.13126
2.7945
2.04561
3.59696
1.75777
3.59687
1.75689
2.79478
2.45153
1.67172
2.70171
1.65671
1.6555
2.4519
2.70134
3.7155
5.1474
5.12789
3.71407
6.21023
6.121
2.56107
2.35596
1.69709
2.55238
3.79201
3.76127
2.35412
5.09428
3.70625
3.7107
5.06095
5.58467
5.84363
1.7013
2.51839
2.53688
3.71595
2.35089
2.35417
3.67366
2.24271
3.87447
2.17255
3.86623
3.87597
2.17448
2.23893
2.30776
5.0865
4.03429
2.74474
4.03248
2.74384
2.31201
2.24005
3.86674
3.87742
2.17648
3.87578
2.17427
2.24393
1.97971
3.51535
1.73362
2.80769
3.5159
1.73479
1.98031
2.08277
3.85287
3.75225
2.16798
3.75185
2.16632
2.08226
1.98329
2.80924
3.51821
1.73796
3.51758
1.73674
1.98277
5.31668
5.31666
3.94258
4.28116
3.94295
3.75871
3.54239
3.759
4.28139
3.94334
3.94335
3.54303
3.75944
3.75949
5.5994
5.58191
2.86789
2.93396
5.59926
5.58214
2.87009
5.2312
4.42264
2.65378
2.52123
5.23071
4.42288
2.65626
5.59955
2.93401
5.58226
2.8702
5.58204
2.86799
5.59967
5.2309
2.52107
4.42308
2.65652
4.42288
2.65408
5.23137
5.27258
3.12324
2.81728
5.27272
3.12344
5.19006
4.03527
2.67526
2.2677
5.1901
4.0351
2.67528
2.8175
5.27293
3.12378
5.27285
3.12375
5.19031
2.26869
4.03531
2.67558
4.03548
2.67566
5.19024
4.26517
5.1313
4.26508
5.13131
2.79496
3.59726
1.75725
2.04566
2.79475
3.59719
1.75806
2.45203
2.70142
1.6558
1.67345
2.45173
1.65694
2.70177
5.23674
5.23692
4.26513
5.13136
4.26528
5.13134
2.79489
2.04644
3.59735
1.75825
3.59741
1.75743
2.79511
2.45184
1.672
2.70188
1.65714
1.65596
2.45217
2.70151
5.03206
3.70347
5.04069
3.70131
5.42503
5.29149
2.51538
3.65898
2.35114
1.69809
3.65806
2.34914
2.5157
5.02868
3.69868
3.70012
5.02859
5.1028
5.1871
3.66805
1.70318
2.34888
2.5203
2.35032
2.52035
3.679
2.24468
3.87687
2.17568
3.86874
2.24083
3.87824
2.17755
2.30978
5.08507
4.03564
2.74634
4.03419
2.74566
2.31377
2.24114
3.86843
3.87858
2.17803
3.87736
2.17625
2.24501
1.98431
3.51935
1.73909
2.81203
1.98546
3.51942
1.73961
2.0855
3.85459
3.75358
2.16966
3.75378
2.16847
2.0844
1.98624
2.81251
3.51993
1.74025
3.52008
1.74001
1.9849
6.47114
3.3396
3.37704
1.94802
2.96552
2.98073
1.94371
4.93089
5.08147
4.76349
4.92458
2.79278
1.9074
2.90487
2.84961
1.82391
2.7434
1.89257
4.70776
4.54686
4.60769
4.6697
4.58776
4.65815
4.81854
4.75039
2.80762
1.81248
2.67206
1.8678
2.70485
1.87886
2.77319
5.31621
5.31609
3.9435
4.28132
3.94333
3.75969
3.54287
3.75949
4.28132
3.94331
3.94347
3.54322
3.7595
3.75971
5.59984
5.58203
2.86789
2.9344
5.59978
5.58221
2.87011
5.23136
4.42297
2.65414
2.52171
5.23098
4.42307
2.65659
5.59991
2.93426
5.58223
2.87005
5.58203
2.8678
5.59995
5.231
2.52134
4.42314
2.6566
4.42298
2.65416
5.23143
5.273
3.12392
2.81799
5.27302
3.12384
5.19022
4.03556
2.6758
2.26804
5.19037
4.03533
2.67563
2.8181
5.27303
3.12392
5.27303
3.12398
5.19039
2.26884
4.03542
2.67571
4.0356
2.67586
5.1903
4.26524
5.13139
4.26516
5.1314
2.79515
3.59748
1.7575
2.04594
2.79497
3.59736
1.75829
2.45219
2.70153
1.65604
1.67357
2.45191
1.65718
2.70187
5.23676
5.23692
4.26517
5.13143
4.2653
5.13142
2.79502
2.04653
3.59743
1.75836
3.5975
1.75754
2.79522
2.45195
1.67203
2.70193
1.65726
1.65608
2.45226
2.70157
5.02887
3.69791
5.02903
3.69681
5.03425
4.97416
3.69552
2.35032
2.52168
1.70086
3.68857
2.34911
2.51877
5.02907
3.69569
3.69644
5.02861
4.88032
4.92434
3.70161
1.7056
2.34966
2.51405
2.35072
2.51839
3.70534
2.24507
3.87743
2.17642
3.86899
2.24118
3.87852
2.17816
2.31034
5.08462
4.03557
2.74647
4.03426
2.74605
2.31426
2.24117
3.86842
3.87842
2.17824
3.87733
2.17646
2.24509
1.98501
3.52033
1.74028
2.81311
1.98642
3.52006
1.74044
2.08598
3.85478
3.75372
2.16985
3.75399
2.16867
2.08485
1.98641
2.81323
3.52012
1.74054
3.5204
1.74035
1.98507
5.70953
3.21101
3.24234
1.94064
2.90242
2.91972
1.9341
4.54067
4.50708
4.66794
4.70264
2.71819
2.64291
1.85668
1.78435
2.74359
2.61759
1.84644
4.60264
4.41509
4.43625
4.58986
4.46317
4.48214
4.64221
4.62325
2.69624
1.77517
2.5754
1.82731
2.59501
1.83629
2.67761
5.3159
5.31591
3.9434
4.28109
3.94319
3.75966
3.54277
3.75939
4.28109
3.94317
3.94331
3.54309
3.75936
3.75958
5.60001
5.58199
2.86766
2.93443
5.6
5.58215
2.86992
5.23135
4.42299
2.65411
2.52177
5.23099
4.42307
2.65656
5.60003
2.93425
5.58215
2.86986
5.58194
2.86758
5.60004
5.23098
2.52138
4.42314
2.65654
4.42298
2.65409
5.23143
5.27301
3.124
2.81835
5.27299
3.12388
5.19022
4.03563
2.67588
2.26812
5.19039
4.0354
2.67568
2.8184
5.27295
3.12391
5.27297
3.12399
5.19039
2.26886
4.03547
2.67572
4.03566
2.67588
5.19027
4.26525
5.13146
4.26518
5.13146
2.79521
3.59753
1.75755
2.04597
2.79505
3.5974
1.75834
2.45224
2.70155
1.65609
1.67356
2.45197
1.65723
2.70189
5.23673
5.2369
4.26517
5.13149
4.2653
5.13148
2.79506
2.04651
3.59745
1.75838
3.59753
1.75755
2.79525
2.45199
1.67199
2.70193
1.65729
1.65609
2.45229
2.70158
5.0274
3.6956
5.02828
3.69505
4.84464
4.81302
3.70959
2.35128
2.51267
1.70251
3.70834
2.35019
2.50778
5.02667
3.69481
3.69518
5.02551
4.76506
4.78784
3.71059
1.70692
2.35068
2.50131
2.35181
2.50619
3.71022
2.24503
3.87718
2.17644
3.86884
2.2411
3.87825
2.17821
2.31042
5.08503
4.03538
2.74615
4.03404
2.74574
2.31431
2.24107
3.86828
3.87821
2.17825
3.87707
2.17643
2.24502
1.985
3.52038
1.74036
2.81341
1.98635
3.52006
1.74053
2.08608
3.85474
3.75375
2.16982
3.754
2.1686
2.08496
1.98629
2.81344
3.52007
1.74056
3.52035
1.74035
1.98499
5.37746
3.12115
3.14058
1.92586
2.84557
2.85946
1.91868
4.44896
4.43821
4.59881
4.60921
2.64749
2.55817
1.81816
1.75166
2.66137
2.54337
1.81048
4.56686
4.37393
4.37986
4.56248
4.42407
4.43028
4.59096
4.58493
2.63551
1.7443
2.51978
1.79647
2.53054
1.80269
2.62541
5.31599
5.31603
3.94325
4.28095
3.94307
3.7595
3.54265
3.75925
4.28098
3.94307
3.9432
3.54297
3.75924
3.75944
5.60003
5.58189
2.86746
2.93439
5.60005
5.58206
2.86974
5.23137
4.42298
2.65403
2.52178
5.23098
4.42308
2.65649
5.60003
2.93419
5.58209
2.8697
5.58186
2.8674
5.60002
5.23101
2.52138
4.42314
2.65648
4.42299
2.65402
5.23146
5.27293
3.12398
2.81851
5.27291
3.12386
5.19019
4.03566
2.67588
2.26813
5.19036
4.03543
2.67568
2.81852
5.27288
3.12389
5.27289
3.12397
5.19034
2.26886
4.03549
2.67571
4.03567
2.67587
5.19024
4.26525
5.13151
4.26517
5.13151
2.79522
3.59753
1.75754
2.04595
2.79507
3.5974
1.75834
2.45225
2.70155
1.65609
1.67352
2.45199
1.65724
2.70188
5.23672
5.23691
4.26516
5.13153
4.2653
5.13153
2.79506
2.04648
3.59744
1.75838
3.59752
1.75754
2.79525
2.45199
1.67195
2.70191
1.65729
1.65609
2.45229
2.70156
5.0232
3.69498
5.02453
3.69462
4.74709
4.73022
3.70854
2.3522
2.4998
1.70313
3.70994
2.35097
2.49514
5.02211
3.69451
3.69485
5.02069
4.70404
4.71703
3.70754
1.70733
2.35111
2.48953
2.35241
2.49389
3.70557
2.24497
3.87702
2.17642
3.86885
2.24101
3.87816
2.17822
2.31036
5.08551
4.03528
2.7459
4.03394
2.74547
2.31424
2.241
3.86832
3.87821
2.17826
3.87703
2.17642
2.24497
1.98491
3.52032
1.74033
2.8135
1.98624
3.52001
1.74052
2.08609
3.85478
3.75384
2.16978
3.75407
2.16854
2.08498
1.9862
2.8135
3.52006
1.74054
3.52031
1.74032
1.98492
5.22341
3.07162
3.08248
1.9106
2.80398
2.81409
1.90389
4.41911
4.41491
4.57603
4.58009
2.6092
2.51029
1.7898
1.72719
2.61659
2.50241
1.78477
4.55371
4.36181
4.36391
4.55142
4.40802
4.41135
4.57245
4.56912
2.60281
1.72181
2.49008
1.77544
2.49563
1.7793
2.5975
5.31618
5.31625
3.94316
4.2809
3.943
3.7594
3.54257
3.75917
4.28094
3.94302
3.94314
3.5429
3.75919
3.75937
5.6
5.58184
2.86731
2.93432
5.60003
5.58202
2.8696
5.23141
4.423
2.65398
2.52179
5.23104
4.4231
2.65645
5.6
2.93413
5.58205
2.86957
5.58183
2.86727
5.59998
5.23105
2.52139
4.42317
2.65645
4.42301
2.65398
5.2315
5.27288
3.12395
2.81857
5.27288
3.12383
5.19017
4.03568
2.67585
2.26812
5.19032
4.03545
2.67565
2.81857
5.27288
3.12387
5.27287
3.12394
5.1903
2.26885
4.03549
2.67568
4.03568
2.67584
5.19021
4.26523
5.13156
4.26516
5.13155
2.79521
3.59752
1.75753
2.04593
2.79506
3.59739
1.75833
2.45225
2.70152
1.65608
1.67349
2.45199
1.65723
2.70186
5.23673
4.26515
5.13156
2.79505
2.04645
3.59743
1.75837
3.59751
1.75753
2.79524
2.45198
1.67191
2.70189
1.65729
1.65608
2.45229
2.70153
5.01816
3.69468
5.01957
3.69428
4.69398
4.68352
3.70191
2.35243
2.48853
1.70301
3.70417
2.35101
2.48443
5.0171
3.69403
3.69444
5.01577
4.66689
4.67559
3.70039
1.70706
2.3508
2.47992
2.35227
2.48373
3.69806
2.24494
3.87704
2.17642
3.86895
2.24096
3.8782
2.17822
2.31028
5.08562
4.03516
2.74568
4.03382
2.74526
2.31415
2.24096
3.86841
3.87825
2.17826
3.87707
2.17642
2.24494
1.98486
3.52032
1.74031
2.81353
1.98617
3.52003
1.7405
2.08608
3.85486
3.75393
2.16977
3.75416
2.16852
2.08497
1.98614
2.81353
3.52009
1.74052
3.52034
1.74029
1.98488
5.13957
3.0448
3.0514
1.8977
2.77468
2.7821
1.8917
4.40484
4.56595
5.31636
5.3164
3.94312
4.28088
3.94296
3.75935
3.54252
3.75913
4.28093
3.94299
3.94311
3.54286
3.75917
3.75935
5.59996
5.58181
2.86719
2.93427
5.59998
5.58199
2.86949
5.23144
4.42303
2.65394
2.5218
5.23107
4.42312
2.65642
5.59995
2.93408
5.58203
2.86947
5.58181
2.86716
5.59993
5.27289
3.12394
2.8186
5.2729
3.12382
5.19014
4.03568
2.67583
2.26811
5.19029
4.03545
2.67562
2.7952
3.59751
1.75752
2.04591
2.79505
3.59739
1.75832
5.01358
3.69412
5.0148
3.69365
4.66036
4.65283
3.69423
2.35197
2.47941
1.70237
3.69653
2.35041
2.47582
5.01276
3.69328
3.69375
5.01167
4.64074
4.64737
3.69284
1.70633
2.34998
2.47219
2.35156
2.47555
3.69066
2.24491
3.87707
2.17642
3.869
2.24093
3.87822
2.17822
2.31017
5.08539
4.03496
2.7454
4.03364
2.745
2.31404
2.24093
3.86845
3.87825
2.17826
3.87708
2.17642
2.24491
1.98483
3.52036
1.74028
2.81355
1.98612
3.52007
1.74048
2.08608
3.85492
3.75399
2.16977
3.75424
2.16852
2.08496
1.98611
2.81355
3.52013
1.74049
3.52038
1.74026
1.98486
5.08486
3.02809
3.03293
1.88754
2.75358
2.75926
1.88218
5.31648
5.3165
3.9431
4.28086
3.94294
3.75935
3.54249
3.75913
5.01001
3.69333
5.01097
3.69283
4.63602
4.63
3.68738
2.35106
2.47208
1.70144
3.68941
2.34943
2.46888
5.00947
3.69242
3.69291
5.00862
4.62036
4.62588
3.68633
1.70536
2.34889
2.46595
2.35052
2.46896
3.68448
2.24488
3.87706
2.17641
3.869
2.2409
3.87819
2.17822
2.31004
5.08499
4.03472
2.74505
4.03341
2.74466
2.3139
2.24089
3.86845
3.8782
2.17824
3.87704
2.1764
2.24487
1.98482
3.52039
1.74025
2.81357
1.9861
3.5201
1.74045
2.08608
3.85494
3.75402
2.16978
3.75428
2.16852
2.08496
1.9861
2.81356
3.52016
1.74047
3.52041
1.74024
1.98485
5.04375
3.01518
3.0194
1.87962
2.73766
2.74226
1.87474
5.00746
3.69247
5.00819
3.69196
4.61666
3.68193
2.34995
2.46615
1.7004
3.68361
2.3483
2.46327
1.49531
2.20432
1.61636
2.42041
2.20559
1.61806
1.49495
1.24796
1.76277
1.26161
1.70917
1.76332
1.2629
1.2482
0.893851
0.79521
0.691296
1.02317
0.894617
0.79703
0.691776
0.769296
0.642135
0.595314
0.829777
0.769927
0.642588
0.595655
1.91458
2.76824
1.97449
2.77276
3.10284
1.98444
1.81167
0.785375
0.814295
0.71606
0.991903
0.77359
0.767679
0.68728
1.00794
0.800737
0.738473
1.11204
1.00672
0.794013
0.736534
1.49963
2.21019
1.6236
2.42596
1.49998
2.21054
1.62416
1.25032
1.76578
1.26632
1.71255
1.25085
1.76598
1.26698
0.895442
0.799052
0.692689
1.02482
0.895976
0.799342
0.692973
0.770651
0.643574
0.596347
0.831051
0.771155
0.643853
0.596604
1.90682
2.71599
2.91982
2.8495
1.89935
1.81898
1.84381
0.966954
0.767821
0.712109
1.0647
0.960056
0.764473
0.709812
1.50128
2.21173
1.62482
2.42698
1.50229
2.21154
1.62492
1.25103
1.76703
1.26735
1.71355
1.25189
1.76684
1.26768
0.896385
0.800354
0.693552
1.02564
0.89656
0.799964
0.69354
0.771544
0.644483
0.597119
0.831647
0.771728
0.644391
0.597099
2.71222
2.71523
1.90257
2.68157
1.9013
1.76739
1.7798
0.956875
0.764676
0.709817
1.05823
0.954169
0.764789
0.709714
1.50188
2.21212
1.62474
2.42711
1.50303
2.21187
1.62484
1.25139
1.76738
1.2672
1.71389
1.25234
1.76713
1.26756
0.896734
0.800535
0.693902
1.02597
0.896783
0.799945
0.693784
0.771903
0.644761
0.597414
0.831879
0.771953
0.644533
0.597276
2.69756
2.60737
1.89622
2.58967
1.89376
1.72861
1.7379
0.951535
0.764643
0.709473
1.05235
0.948948
0.764229
0.70901
1.50211
2.2123
1.62457
2.4271
1.5033
2.21202
1.62471
1.25158
1.76754
1.26702
1.71402
1.25257
1.76727
1.26741
0.896885
0.800377
0.694065
1.0261
0.896886
0.799709
0.69391
0.772044
0.644817
0.597509
0.831978
0.772049
0.644556
0.59734
2.68744
2.55256
1.8873
2.54394
1.88505
1.70189
1.70812
0.946377
0.763619
0.708403
1.04677
0.943894
0.762837
0.707641
1.50219
2.21238
1.62445
2.42705
1.5034
2.21208
1.62461
1.25166
1.76763
1.2669
1.71406
1.25267
1.76735
1.26731
0.896945
0.800055
0.694153
1.02605
0.896923
0.799354
0.693977
0.772109
0.644816
0.597539
0.832027
0.772095
0.644555
0.59736
0.941506
0.761999
0.706833
0.761083
0.705938
1.50222
2.21241
1.62438
2.42702
1.50343
2.21211
1.62454
1.2517
1.76768
1.26682
1.71407
1.25272
1.76739
1.26724
0.896965
0.799671
0.6942
1.02591
0.896931
0.798956
0.694013
0.772142
0.644801
0.597549
0.832048
0.772119
0.644542
0.597364
1.50221
2.21242
1.62432
2.42699
1.50343
2.21211
1.6245
0.896971
0.799264
0.694228
1.02571
0.896919
0.798552
0.694022
0.77216
0.64479
0.59755
0.832057
0.772132
0.644532
0.597367
0.793368
0.691286
1.02142
0.893457
0.794073
0.6909
2.7155