/*--------------------------------*- C++ -*----------------------------------*\
  =========                 |
  \\      /  F ield         | OpenFOAM: The Open Source CFD Toolbox
   \\    /   O peration     | Website:  https://openfoam.org
    \\  /    A nd           | Version:  10
     \\/     M anipulation  |
\*---------------------------------------------------------------------------*/
FoamFile
{
    format      ascii;
    class       volScalarField;
    location    "2000";
    object      p;
}
// * * * * * * * * * * * * * * * * * * * * * * * * * * * * * * * * * * * * * //

dimensions      [0 2 -2 0 0 0 0];

internalField   nonuniform List<scalar> 
8643
(
-0.0188947
-0.0156227
-0.019024
0.0174904
0.0251978
-0.00345075
-1.36828
-0.042154
-0.0166185
-0.0140699
-0.00419295
0.00674884
0.00421688
-0.262441
-0.513923
-0.0323515
-0.0159482
-0.0124559
-0.0048545
-0.00392146
0.00207611
0.251742
-0.0534074
-0.471998
-0.0536136
-0.02248
-0.0148832
-0.0111833
-0.0052491
-0.00386746
0.000990364
0.267991
-0.0327138
-0.126004
-0.0652841
-0.0205113
-0.0121798
-0.00879553
-0.00510113
-0.00323576
2.99429e-05
0.0253886
-0.00792096
-0.0194551
0.0165463
0.0237571
-0.0036215
-0.162875
0.00631949
-0.00719958
-0.0117245
-0.00176109
0.00774478
0.00427932
0.436414
-0.00910936
0.00344105
-0.00929849
-0.01062
-0.00350346
-0.00349748
0.0019462
0.000952243
0.318068
0.158754
0.0320311
0.00434991
-0.00847784
-0.00918248
-0.00475037
-0.00378197
0.000733568
-0.00719144
0.187246
0.153076
0.0628508
0.00994845
-0.00580794
-0.00719729
-0.00512699
-0.00352935
-0.000319945
-0.0144906
-0.0151465
-0.0202582
0.0174594
0.0243877
-0.00344619
-0.163083
-0.0343607
-0.0162459
-0.0118231
0.000958237
0.00861622
0.00538313
-0.19788
-0.09738
-0.0212235
-0.0151966
-0.00859075
-0.000478574
-0.00151858
0.00315054
-0.0983286
-0.200589
-0.171437
-0.0748515
-0.0184793
-0.0139339
-0.00786832
-0.00254539
-0.00205191
0.00163986
-0.123449
-0.16392
-0.118971
-0.0648783
-0.0194447
-0.0127132
-0.00717422
-0.00384775
-0.00234461
0.000301872
-0.0289796
-0.0239061
-0.0237751
0.016255
0.0240153
-0.00355293
-0.147167
-0.0428541
-0.024863
-0.0159576
-0.0011336
0.00765587
0.00522574
-0.137423
-0.0792449
-0.0347815
-0.0240817
-0.0124007
-0.00251045
-0.00236807
0.00311123
-0.107892
-0.140812
-0.115864
-0.0686086
-0.0335157
-0.0232472
-0.0118561
-0.00439243
-0.00279416
0.00166859
-0.0918808
-0.12275
-0.0976702
-0.0677635
-0.0321919
-0.0214523
-0.0110758
-0.00546498
-0.00288277
0.000384093
-0.0251689
-0.0248133
-0.0252171
0.0151449
0.0233841
-0.00371386
-0.126993
-0.0394437
-0.0249263
-0.0171706
-0.00244237
0.00704245
0.00497305
-0.0852719
-0.0569357
-0.030461
-0.0231204
-0.0135658
-0.00407403
-0.00316878
0.00278983
-0.0834212
-0.09598
-0.0626436
-0.0443267
-0.0279959
-0.021872
-0.0128795
-0.00579125
-0.00367548
0.00134738
-0.0609967
-0.0633368
-0.0452435
-0.0395196
-0.024603
-0.0198949
-0.0118202
-0.00662831
-0.00367501
0.000110967
-0.0201504
-0.0227479
-0.0245819
0.0151463
0.0232241
-0.00375311
-0.120139
-0.0353336
-0.0226393
-0.0163824
-0.00223364
0.00701762
0.0049223
-0.0506426
-0.0265934
-0.020433
-0.0124399
-0.00381092
-0.00311551
0.0026902
-0.0786017
-0.0573677
-0.0410738
-0.024109
-0.0188248
-0.0116942
-0.00547756
-0.00362096
0.00129315
-0.0552855
-0.0565228
-0.0415187
-0.0350987
-0.0206623
-0.0169218
-0.010591
-0.00630251
-0.00363125
7.6776e-05
-0.0172006
-0.0207892
-0.0234573
0.0156943
0.0235083
-0.00366533
-0.117428
-0.0330278
-0.0209031
-0.0153677
-0.00158764
0.00736658
0.00499488
-0.048357
-0.0251815
-0.0189823
-0.0114884
-0.00318098
-0.00279874
0.00275395
-0.0413813
-0.023239
-0.0175737
-0.0108175
-0.00489151
-0.00331585
0.00136017
-0.0357096
-0.020265
-0.015897
-0.00977964
-0.00575667
-0.00333224
0.000146383
-0.0147192
-0.0190658
-0.0223387
-0.114057
-0.0307908
-0.0193237
-0.0143617
-0.0447457
-0.0233274
-0.0176058
-0.0106815
-0.0386047
-0.021476
-0.0163591
-0.0100985
-0.0326582
-0.0186714
-0.0148263
-0.00911669
-0.01219
-0.110389
-0.347279
-0.0492135
-0.0225852
-0.100557
-0.0367761
-0.26839
0.0298384
0.026397
-0.0183217
-0.0196821
-0.327463
0.312686
0.0248592
0.148807
0.16447
0.122827
-0.303507
0.0531884
-0.427649
0.3193
0.169554
0.199159
0.796777
-0.355177
-0.288019
-0.262034
-0.173148
-0.202514
-0.118917
-0.17752
0.171325
-0.101546
-1.73069
0.564822
1.01889
0.217299
-0.0764204
0.305842
0.356466
0.241393
-0.569741
0.407457
0.547385
-0.0577537
-0.880388
0.599796
0.261786
-0.206428
-0.183309
0.712231
0.285985
0.605578
-0.314902
-0.171582
-0.244498
-0.19057
-0.168388
-0.161408
-0.166169
-0.273608
-0.181188
-0.246982
-0.239807
-0.168545
-0.177927
-0.125421
-0.136663
-0.10075
-0.121253
-0.176453
-0.154649
-0.150793
-0.181458
-0.116912
-0.104909
-0.0713945
-0.102406
-0.0762735
-0.108365
-0.123599
-0.110499
-0.0955186
-0.156829
-0.0899238
-0.0763691
-0.0928725
-0.106458
-0.0901171
-0.0758842
-0.0918823
-0.103956
-0.0889517
-0.605496
0.236051
0.550158
-0.116795
-0.21852
0.220183
0.103632
0.592755
-0.942701
0.0847734
1.37381
0.0512666
1.05964
1.11886
0.155712
0.969494
0.634262
0.364966
0.80248
0.509345
0.861312
-0.166687
-0.611036
-0.184321
-0.382014
-0.380976
-0.427099
-0.322903
-0.347902
-0.229529
-0.187681
-0.246589
-0.159019
-0.225664
-0.139811
-0.140071
-0.116367
-0.126648
-0.108305
-0.186988
-0.101302
-0.104303
-0.0906839
-0.0955865
0.415473
2.6762
0.333955
0.308618
0.349936
-0.446774
0.920391
-0.110534
0.199142
-1.30146
-0.591408
-0.833685
0.570007
0.41149
0.190897
0.280257
0.253146
0.227823
0.168721
0.232528
0.224725
0.285059
0.215151
0.220354
0.372852
0.229219
-0.169727
-0.126763
-0.0415573
-0.028076
-0.176198
-0.177642
-0.153986
-0.158519
-0.175576
-0.174554
-0.174686
-0.139857
-0.121189
-0.133967
-0.0932992
-0.118716
-0.0918277
-0.111953
-0.103449
-0.070566
-0.0886428
-0.066391
-0.0983307
-0.0596322
-0.0838382
-0.0938001
-0.0559665
-0.0786639
-0.0955832
-0.0809517
-0.092576
-0.0768714
-0.0926671
-0.0776524
-0.0887966
-0.0723946
-0.289206
-0.429373
0.375064
0.469261
0.565216
0.525701
-0.258031
-0.52836
-0.623206
-0.569432
-1.43196
0.270971
0.294765
-0.0782568
0.229746
0.589308
0.300922
0.831973
0.45116
0.190957
0.0160227
0.504968
0.487954
0.491038
0.339548
0.663337
0.305827
0.156386
0.41312
0.597409
0.526813
0.325851
0.493127
-0.803306
-0.629992
0.0567527
1.10193
0.10797
-1.05747
0.800889
0.0570286
0.727256
0.165472
1.25516
0.288693
0.353324
0.795868
1.43378
0.126392
0.0502495
0.0709662
-0.265866
-0.382533
-0.482167
-0.276888
-0.0949455
-0.305959
-0.13726
-0.354332
-0.381442
-0.490376
-0.197728
-0.293296
-0.346871
-0.224417
0.0433064
-0.200142
0.0726878
-0.241868
-0.272135
-0.328071
-0.128327
-0.230506
-0.295665
-0.153927
0.119559
-0.144353
0.128854
-0.194512
-0.222136
-0.289007
-0.0995974
-0.203969
-0.273791
-0.123292
0.148478
0.746855
0.174222
0.428453
0.675935
2.2098
-0.106671
-0.420924
-1.76084
0.0508802
2.09315
-0.526578
-0.0838874
-0.339034
-0.221663
-0.559776
-0.467849
0.150463
-0.0961206
-0.491761
-0.832767
-0.414404
-2.42341
-0.539499
-1.14731
-1.35988
-0.357331
-0.0276182
0.580561
-0.0269548
-0.068579
-0.161407
-0.114948
1.19905
0.746808
-0.15591
1.2001
-0.695052
-0.48246
-0.184835
-0.165299
-0.398216
-0.484935
-0.428832
-0.231744
-0.223411
-0.32145
-0.210978
-0.187145
-0.189357
-0.173579
-0.151537
-0.172217
-0.418874
-0.297635
-0.349178
-0.298406
-0.262682
-0.33577
-0.247066
-0.230418
-0.187997
-0.251993
-0.234685
-0.174916
-0.209595
-0.181655
-0.1236
-0.133741
-0.116262
-0.0922041
-0.0922154
-0.102873
-0.155639
-0.203838
-0.134045
-0.131931
-0.150894
-0.153357
-0.13198
-0.144207
-0.107494
-0.119388
-0.118464
-0.108501
-0.120145
-0.106873
-0.0853209
-0.0839427
-0.0769773
-0.0572213
-0.0680112
-0.0717845
-0.0989366
-0.166103
-0.0913799
-0.09117
-0.100556
-0.0995034
-0.091806
-0.109269
-0.0811966
-0.085915
-0.086829
-0.0827257
-0.0872703
-0.0817956
0.376364
0.67918
0.470338
-0.145818
0.936329
0.155946
-1.14998
-0.076419
-0.311001
-0.781064
-0.738991
-0.677246
-0.79798
-0.413398
-0.203848
0.396086
2.12938
0.52149
0.556613
0.0102071
0.0624599
1.09531
0.142225
0.103255
0.340894
0.402706
0.842472
0.374799
1.38047
0.320295
0.237487
-1.06356
-3.70194
-3.09607
-0.0866762
0.0344015
0.51177
-0.222819
1.08541
0.15723
0.00852565
0.462046
0.129765
0.257083
-0.287385
0.218029
0.0950336
0.381548
-0.259611
0.350715
0.472895
0.135394
0.181796
1.20863
0.772152
0.0476939
0.373882
1.70519
-0.015379
-0.167288
-0.368978
0.0372159
-0.0705651
-0.317259
-0.196415
-0.0117652
-0.334033
-0.430455
-0.265204
-0.352771
-0.432257
-0.28809
-0.0778765
-0.289497
-0.254697
-0.00635741
-0.321234
-0.379256
-0.154318
-0.255215
-0.314019
-0.18109
0.0931325
-0.213549
-0.166225
0.108107
-0.24228
-0.304251
-0.110674
-0.214166
-0.282619
-0.135524
0.136744
-0.181772
-0.128537
0.143236
-0.208523
-0.277756
0.236662
0.393102
0.702218
0.205355
1.04194
0.41965
0.295663
0.47283
0.441769
-0.0628081
0.277136
3.18859
2.68437
-0.448583
-0.0947282
1.30414
-0.033043
0.521466
-0.0590572
-0.778265
1.18275
0.214376
-0.322203
-0.186709
0.717712
1.43548
0.241885
0.433344
0.462724
0.189866
0.380018
-0.164985
0.123382
0.104495
0.481075
2.34173
0.553347
0.331641
0.814752
1.16001
1.39974
-0.154038
-0.692984
-0.157681
0.223334
0.0715254
0.382515
0.0553649
-0.0246782
-1.6788
-1.00106
-2.23019
-0.65746
-0.905999
-0.947696
-2.07173
-0.0485427
0.920067
0.317497
0.132006
0.375837
0.0317669
0.26218
-0.822757
0.997681
-0.544673
2.1665
1.51572
-0.264053
-0.110521
-0.103236
-0.460164
0.0784308
-0.499598
0.00594863
0.00550908
-0.023029
-0.0171948
-0.0243339
-0.018059
0.0275301
0.000184156
0.0240291
-0.00330903
0.0209657
0.00211134
0.0186978
0.00182331
-0.0173878
0.0269543
-0.017433
0.0225018
-0.086467
0.0523716
-0.0105315
-0.0329099
-0.0195496
0.0245596
-0.0014429
-0.00191656
-0.00907938
0.00529019
-0.0132722
-0.00971636
-0.0102855
0.00545991
-0.00978056
-0.00978048
-0.0176227
-0.0135169
-0.00243725
-0.0198404
-0.0137207
-0.0147744
-0.00504002
-0.00267055
0.00874962
-0.00509757
0.0136985
-0.00531129
0.00504704
-0.00760624
-0.0114685
0.00701996
-0.0097966
0.0226838
-0.0135152
0.00460341
-0.0118459
-1.33326
-0.382836
-0.408063
-0.549066
-0.479102
-0.411226
-0.355975
0.00633294
0.00633526
-0.0239134
-0.0193818
-0.0235083
-0.0158511
0.0249285
-0.00204163
0.0263693
-0.00185228
0.0193357
0.000980284
0.0198987
0.00280055
-0.0181595
0.0265168
-0.0168155
0.022522
0.0132997
-0.0343957
0.00313841
0.00647026
0.0012437
-0.0066896
-0.00511581
-0.0136985
-0.00560598
0.00625464
-0.00469059
-0.0058297
-0.013362
0.00615948
-0.00716843
-0.00551273
-0.0193548
-0.0108961
-0.00143126
-0.0191027
-0.0109004
-0.00973196
0.000526662
-0.00314312
0.00815427
-0.00494753
0.017458
-0.00281137
0.00968396
-0.00435433
-0.011658
0.00786751
-0.00982703
0.0239161
-0.0114006
0.00796977
-0.00917736
0.0278981
0.0608829
0.0419752
-0.162403
-0.0444202
-0.0707629
-0.0248002
0.0576974
0.108587
-0.0755505
-0.145074
1.2913
0.422371
1.01495
-0.284113
-0.19977
-0.161236
0.00496937
0.00136072
-0.0245975
-0.0184182
-0.0269607
-0.0170944
0.0261217
-0.00113054
0.0254953
-0.00197803
0.0201197
0.00158503
0.0196947
0.00269461
-0.0177621
0.0267017
-0.0168668
0.0225481
-0.0625825
-0.0624633
-0.00706671
-0.031483
-0.0164805
-0.0293291
-0.0192644
-0.0388097
-0.0240774
0.00458917
-0.0136974
-0.00907887
-0.0238694
0.000748016
-0.018578
-0.0121261
-0.0183168
-0.0118635
-0.000536727
-0.0227794
-0.0122655
-0.0135419
-0.00113198
-0.00257207
0.00998653
-0.003649
0.0169299
-0.00289862
0.00943795
-0.00414379
-0.0112686
0.00839281
-0.00905742
0.0235944
-0.0116218
0.00767235
-0.00948993
-0.077113
-0.101106
-0.0619111
-0.154533
-0.0885426
-0.106037
-0.0744133
-0.085681
-0.164498
-0.119294
-0.160393
-0.346024
-0.300462
-0.286699
-0.23275
-0.318092
-0.237772
0.00026455
-0.00125352
-0.0280315
-0.0200006
-0.029094
-0.0187686
0.0249819
-0.0015232
0.0240047
-0.00296853
0.0197404
0.00154953
0.0188836
0.00236052
-0.0177313
0.0268166
-0.0171238
0.0224859
-0.0768008
-0.0546962
-0.0184697
-0.0402342
-0.0275439
-0.0274056
-0.0219734
-0.0384997
-0.0279756
-0.000363842
-0.0213545
-0.0146571
-0.026379
-0.00193246
-0.021883
-0.0154863
-0.0199336
-0.0155238
-0.00287399
-0.0249564
-0.0139978
-0.0161015
-0.00326076
-0.00338445
0.00846548
-0.0048415
0.0153859
-0.00418655
0.00765249
-0.00568412
-0.0115084
0.00763842
-0.00948849
0.0227223
-0.0120078
0.00671225
-0.00992728
-0.0855054
-0.0945682
-0.0720171
-0.128018
-0.0785773
-0.085869
-0.0642962
-0.107869
-0.14903
-0.0964717
-0.114072
-0.185094
-0.166585
-0.153555
-0.189019
-0.174958
-0.174054
-0.00147078
-0.000834285
-0.0294714
-0.0213643
-0.0288696
-0.0190163
0.0237185
-0.00231076
0.0236624
-0.00333743
0.0190955
0.00126182
0.018551
0.00214951
-0.0179069
0.0268041
-0.0172687
0.0224303
-0.0682703
-0.0465386
-0.0192238
-0.0367126
-0.0272823
-0.0221102
-0.0194624
-0.0337925
-0.025344
-0.00211406
-0.0217409
-0.0158862
-0.0245948
-0.00142261
-0.020454
-0.0150492
-0.021316
-0.016736
-0.00429774
-0.0246923
-0.0142652
-0.0160991
-0.00369687
-0.00418234
0.00720889
-0.00577223
0.0148658
-0.00469384
0.00706365
-0.006253
-0.011865
0.00709387
-0.0098586
0.0223858
-0.0122807
0.00632526
-0.0102189
-0.0748027
-0.0782292
-0.0605332
-0.118844
-0.0684724
-0.0740817
-0.0532879
-0.0838965
-0.107487
-0.0772474
-0.0890341
-0.134325
-0.127753
-0.108728
-0.142524
-0.11682
-0.134294
-0.000614839
0.000497169
-0.0288572
-0.021345
-0.0277927
-0.0183756
0.0236335
-0.00250241
0.0241658
-0.00306295
0.0189161
0.00114673
0.0187447
0.00222661
-0.0179698
0.0267887
-0.0172104
0.022422
-0.0611178
-0.0425677
-0.0164389
-0.0325405
-0.02414
-0.0187634
-0.0169116
-0.0306545
-0.0226104
-0.00117057
-0.0196535
-0.0145332
-0.0225171
-3.7213e-05
-0.018435
-0.0135084
-0.0212765
-0.0160197
-0.00399638
-0.0235997
-0.013626
-0.0150942
-0.00301652
-0.00427441
0.00725801
-0.00580803
0.0152635
-0.00441818
0.0075045
-0.0059344
-0.0119542
0.00701849
-0.00995093
0.022602
-0.0122159
0.00648952
-0.0101518
-0.0674511
-0.0719641
-0.0536785
-0.115897
-0.0639563
-0.0705138
-0.0489964
-0.0879552
-0.120821
0.000742278
0.00179802
-0.0277446
-0.0206679
-0.0266705
-0.0175936
0.0241863
-0.00215274
0.0248484
0.01918
0.00127247
-0.0178716
-0.0576458
-0.0398132
-0.0140686
-0.0300252
-0.0218998
-0.016282
-0.0149035
-0.0283502
-0.0205898
0.000235883
-0.0178646
-0.0130435
-0.0207678
0.00129561
-0.0167634
-0.0120997
-0.0205919
-0.0149717
-0.00320141
-0.0224746
-0.0128452
-0.0140474
-0.00219382
-0.00385661
0.00786216
-0.0053252
0.0158892
0.00816156
-0.00538557
-0.0117842
0.0073225
-0.00976798
-0.0642232
-0.0692846
-0.0507113
-0.112786
-0.0612627
-0.0673773
-0.046402
0.00203775
0.00308686
-0.0266302
-0.019855
-0.054808
-0.0368646
-0.0121033
-0.0277319
-0.0199567
-0.0137368
-0.0129064
-0.0259156
-0.0185342
0.00156
-0.0162387
-0.0116968
-0.0190184
0.0026179
-0.0150929
-0.0107259
-0.0197892
-0.0139367
-0.00237685
-0.0613999
-0.0656569
-0.0477484
-0.108867
-0.0582745
-0.0635829
-0.0432611
-0.0519
-0.0253279
-0.0585538
-0.181385
-0.146694
-0.317651
-0.284547
-0.27343
-0.218784
0.493375
0.198057
0.608404
0.210037
0.0790708
0.0205343
0.179101
0.0114333
0.31859
0.347211
0.159128
0.145539
0.394767
0.278641
0.16031
0.546585
-0.311948
0.134859
0.686864
0.428064
-0.0933941
0.579719
1.68887
-2.77119
0.54834
1.12574
3.21472
0.929287
-1.7454
4.51515
0.347954
0.0692912
-0.0462576
0.245254
0.867794
-0.0280069
0.903602
-0.0508552
-0.136749
-0.210146
-0.146578
-0.15837
-0.13578
-0.215021
-0.215979
-0.167546
-0.204601
-0.187053
-0.319504
-0.28728
-0.28731
-0.174864
-0.128095
-0.276943
-0.200481
-0.202922
-0.209035
-0.202324
-0.212789
-0.181247
-0.192658
-0.207471
-0.224228
-0.188308
-0.197544
-0.196439
-0.164171
-0.187947
-0.188954
-0.194103
-0.209425
-0.176727
-0.208769
-0.24864
-0.239731
-0.204654
-0.222409
-0.20067
-0.169788
-0.160825
-0.142013
-0.162942
-0.164068
-0.136796
-0.154375
-0.155641
-0.148869
-0.146367
-0.149524
-0.129372
-0.116326
-0.138189
-0.127669
-0.139244
-0.134994
-0.12364
-0.141877
-0.152863
-0.138356
-0.151189
-0.162433
-0.125524
-0.138344
-0.138348
-0.113725
-0.125125
-0.117931
-0.112037
-0.115343
-0.128989
-0.115927
-0.135159
-0.133824
-0.108368
-0.0963361
-0.125021
-0.10978
-0.119063
-0.10913
-0.108871
-0.118988
-0.123161
-0.104158
-0.123703
-0.129024
-0.0991737
-0.131425
-0.133463
-0.10523
-0.115845
-0.104242
-0.105885
-0.104293
-0.122665
-0.106007
-0.133103
-0.130668
-0.102184
-0.0929431
-0.122578
-0.10516
-0.115072
-0.102569
-0.104179
-0.129666
-0.131447
-0.101233
-0.114105
-0.10046
-0.104606
-0.0998788
-0.120641
-0.102522
-0.130131
-0.128282
-0.0970655
-0.0910389
-0.11953
-0.10106
-0.112724
-0.0985536
-0.0991117
-0.12601
-0.127787
-0.0956882
-0.1107
-0.096091
-0.101463
-0.0941742
-0.117146
-0.0981393
3.58801
-1.10538
-1.48324
0.119267
-2.40458
0.414741
2.43
-0.0329178
-0.32544
-0.350986
-0.0589819
-0.179423
-0.13102
-0.0600447
-0.489502
-0.0550036
-3.7258
0.199069
-1.21306
-0.517544
-0.453939
-1.08521
-0.16048
0.553565
0.563959
1.09972
0.51961
0.064359
-0.0497345
-0.454929
0.674491
0.600632
0.270524
0.11602
0.605033
-0.0824354
0.211141
0.427703
-0.270188
-0.272723
-0.1128
0.106342
-0.458707
-0.0226388
-0.214996
-0.403806
0.181592
-0.143863
-0.286698
-0.473195
0.0843018
-0.27386
-0.142255
0.0860312
-0.466927
-0.2257
-0.0951804
0.126665
-0.427146
-0.120681
-0.249847
-0.448018
0.102667
-0.0726443
-0.20463
-0.408519
0.148216
-0.187639
-0.0535023
0.167236
-0.391836
-0.163825
-0.0272512
0.195491
-0.368246
-0.0392343
-0.174932
-0.379024
0.182839
-0.0175708
-0.155131
-0.359849
0.205807
-0.147525
-0.00906485
0.214914
-0.352781
-0.13775
0.00284799
0.227792
-0.343763
-0.0023661
-0.142099
-0.347728
0.222052
0.241874
0.312025
0.746196
-0.426893
0.528727
0.510739
0.74311
0.735613
0.407319
1.64038
0.785289
0.020105
1.27062
-0.830153
-1.36765
0.437697
0.442462
-1.65971
1.15333
0.233106
1.00779
0.178958
0.107986
0.29408
0.203655
-0.0295407
0.0123518
0.345716
-0.0164915
-0.0556268
0.0602496
-0.0452871
-0.0292184
0.0314751
-3.60834
-0.435426
-1.35607
-3.35475
-1.39059
-2.17553
-0.694099
-1.59592
-1.50066
-1.28545
-2.45869
-2.79295
0.00773496
0.00872358
-0.0275719
-0.0249268
-0.0199714
-0.0194113
-0.0216194
-0.0275069
-0.0220673
0.00122742
0.0024737
-0.0168802
-0.0152594
0.00478839
-0.016925
-0.00262183
0.0152839
-0.00387186
0.0117613
-0.00513265
0.0136255
-0.00548528
0.00976833
0.00750994
0.00782724
-7.39077e-05
0.0100474
0.0231064
0.0170158
0.00985187
0.00235267
0.0139907
0.00610724
0.00772997
-0.0081873
-0.00809481
0.00303468
0.00957709
-0.00913618
0.0146191
-0.00413615
0.0110968
-0.00381618
0.0139597
-0.00419099
0.0100473
-0.141228
-0.0220979
-0.0944553
-0.0129392
0.00691219
0.0113949
0.00473246
0.0434147
0.0670117
-0.0157484
-0.0338091
0.0390754
0.0340391
0.0572418
-0.0710567
-0.116404
-0.0504292
-0.0981495
0.0076113
0.00819674
-0.0311737
-0.0167227
-0.0217236
-0.0227824
-0.0182072
-0.0274432
-0.0295815
-0.00201332
0.00314682
-0.0156964
-0.0194199
-0.00184483
0.00176868
-0.021047
0.0148691
-0.00360417
0.0115553
-0.00385992
0.0140573
-0.00408588
0.0102944
-0.164963
-0.160143
-0.153789
-0.0755
-0.101458
-0.0782511
-0.102446
-0.146031
-0.120743
-0.129859
-0.136459
-0.155477
-0.0816573
-0.150226
-0.118598
-0.156694
-0.100309
-0.154169
0.00753673
0.00822279
-0.038598
-0.0304085
-0.0363025
-0.0296037
-0.0314061
-0.0351111
-0.0360638
-0.00809633
-0.00448204
-0.0246912
-0.0259622
-0.00931952
-0.00442866
-0.02775
0.0149814
-0.00382534
0.0116638
-0.00413923
0.0139267
-0.0044158
0.0101444
-0.128314
-0.137562
-0.115935
-0.0747282
-0.104054
-0.0903644
-0.092408
-0.137088
-0.137107
-0.143585
-0.132807
-0.13374
-0.0858601
-0.130564
-0.0962927
-0.11494
-0.0764231
-0.112079
0.00739029
0.00809271
-0.0354545
-0.0285268
-0.0319711
-0.0247841
-0.029526
-0.0319576
-0.0307479
-0.00838957
-0.00597759
-0.0255883
-0.025709
-0.0106695
-0.00474793
-0.0274898
0.014943
-0.00401654
0.011628
-0.0043064
0.0138263
-0.004599
0.0100377
-0.102785
-0.122034
-0.0975406
-0.0646797
-0.0887591
-0.0797235
-0.0793555
-0.109739
-0.112513
-0.114866
-0.108348
-0.0991727
-0.062647
-0.0948984
-0.0758639
-0.0896031
-0.0571807
-0.0863625
0.00736895
0.00803156
-0.0317304
-0.0243596
-0.0267376
-0.0203633
-0.0254823
-0.0281477
-0.0261541
-0.00651833
-0.00431327
-0.0234324
-0.0235191
-0.00895663
-0.00288631
-0.0252466
0.0149225
-0.00405349
0.0116224
-0.00428469
0.0138168
-0.00456806
0.0100416
-0.0954215
-0.117241
-0.0927628
-0.0595635
-0.0816395
-0.0730752
-0.0740059
-0.0840294
-0.0518642
-0.0822811
-0.0500965
-0.079246
-0.0293092
-0.0216018
-0.0237458
-0.0176352
-0.0228463
-0.0256321
-0.0233993
-0.00479108
-0.0025038
-0.0214561
-0.0216496
-0.00717479
-0.00113787
-0.0233714
-0.00395139
0.0116633
-0.0931749
-0.114512
-0.0905398
-0.0567283
-0.0786674
-0.0700215
-0.071289
-0.0270796
-0.0193005
-0.0212331
-0.0151543
-0.0206191
-0.0233484
-0.0208754
-0.00319242
-0.000884532
-0.0197299
-0.0199265
-0.00557272
0.000481944
-0.021646
-0.0901141
-0.11089
-0.0872271
-0.0532296
-0.0754251
-0.0667286
-0.0677898
-0.0247883
-0.0169446
-0.0186639
-0.0126858
-0.0182972
-0.0210307
-0.0183678
-0.0717787
0.00532204
0.00435223
-0.00370128
-0.0239558
-0.0040569
0.0170028
-0.0164187
0.0173238
-0.0254961
-0.00481089
-0.00673856
-0.0207716
0.0162047
0.0137081
0.0151159
0.0259479
0.00752164
0.0258063
0.0238227
0.00269127
0.0186143
0.00203421
-0.0022691
0.00749233
-0.00185277
-0.00421901
0.00289832
0.00520533
0.0150391
0.0238247
0.0220007
0.000484163
0.0224243
0.00378262
0.0130363
0.0024104
-0.00249833
-0.00562694
0.00105714
-0.00478975
0.00435859
0.000367071
0.0390668
0.00040097
0.0194606
0.0375142
-1.62902e-05
-0.0387408
0.00224205
-0.0329164
0.00315039
0.00254935
-0.0333678
-0.0383073
0.0188349
0.0365381
-0.00109324
0.0368442
-0.00185855
-0.0402071
0.000192687
0.00138597
-0.0344443
0.00048942
-0.0349875
-0.0398119
0.00113369
0.0325378
0.00219023
0.0314372
0.0129969
-0.0236744
0.0108555
-0.016273
-0.0234064
0.00878797
0.0142143
-0.00284132
0.0232433
-0.00166696
0.0233154
-0.00444093
-0.000998252
0.0214072
0.00775996
0.007001
0.00153689
0.0309054
0.000489812
0.0321732
0.0131139
-0.0188958
-0.0243117
0.00790409
-0.0249768
0.00951759
0.0122269
-0.0017647
0.0263944
0.0208779
-0.00539804
-0.00273481
-0.00357107
0.0229372
-0.0763043
-0.118841
-0.106632
-0.073898
-0.457419
-0.290618
-0.186075
-0.0820496
-0.0732885
-0.16779
-0.155702
-0.142439
-0.0804911
0.0379367
0.0222131
-0.00742295
0.0600577
0.0220739
0.296906
-0.00192572
0.0763979
0.070754
0.0540818
0.0318075
-0.013048
0.06976
-0.0153055
-0.00596746
-0.013056
-0.0104773
-0.00813109
-0.0132157
-0.0109865
-0.00706547
0.0057105
0.00322842
0.0234759
-0.00557017
0.00143518
-0.00098404
-0.00158526
-0.00487491
0.00647097
-0.00451218
0.00296741
-0.0071779
-0.000654736
-0.0146117
-0.0205981
0.00164618
0.00502618
-0.0185686
0.00135649
-0.0183933
-0.00137204
-0.0125845
0.00744092
-0.0117906
0.00371771
-0.0136115
0.00374724
-0.0186722
0.00389848
-0.0178254
0.00170082
-0.0208222
2.91394e-06
-0.0141128
0.00698007
0.0068684
-0.00507066
-0.0232453
-0.00359672
0.015303
-0.0164198
0.0175371
-0.0233348
-0.00333776
-0.0041607
-0.0183624
0.0180598
0.0162684
0.0147485
0.0231702
0.00492151
0.0259575
0.0158012
0.0238139
0.00223282
0.00177402
-0.00463412
0.00532795
-0.00192315
0.00288689
-0.00443775
0.00257451
0.016834
0.0259568
0.0242295
0.00249567
0.0242288
0.00600293
0.015095
0.00375971
-0.00138884
-0.00430724
0.00272069
-0.00395301
0.00627883
0.00195697
0.0371701
-0.00119366
0.0198761
0.0376505
-0.000204898
-0.0389299
0.000947695
-0.0342213
0.00283112
-0.03968
0.00217503
-0.0334486
0.0199049
0.0377655
-2.25601e-05
0.0378163
-0.000689994
-0.0392011
0.00137851
0.00221429
-0.0332978
0.00135118
-0.0337609
-0.0387672
0.000903053
0.0320884
0.00155359
0.0311481
0.0128114
-0.0245414
0.010108
-0.0165801
0.0133313
-0.023656
0.00867125
-0.00307868
0.0228917
-0.0023593
0.0228998
-0.0016172
-0.00477494
0.0211139
0.00807038
0.00736794
0.00170082
0.0309241
0.000689411
0.0321467
0.0135749
-0.0179288
-0.0237687
0.00835654
-0.0242649
0.0102716
0.0126194
-0.00151788
0.0264516
0.0208498
-0.00520495
-0.00236985
-0.00338462
0.0229047
-0.00174975
0.00282487
0.0231604
-0.00831598
0.0909738
0.0411842
0.0214239
-0.0112573
0.00117323
0.0105686
0.0172203
-0.00516702
-0.00291967
-0.0279168
-0.0442707
-0.0289413
-0.0477584
-0.0770078
-0.0379629
-0.0416108
-0.030279
-0.0447609
-0.0627667
-0.0333728
-0.0390221
-0.063517
0.00238903
0.0139065
0.00177263
0.00223262
0.0110912
0.00846276
-0.000122663
-0.00161312
0.00693042
-0.0139842
-0.0124815
-0.000381837
0.00151827
-0.0173044
0.00568354
0.00150084
-0.00222444
-0.00758603
0.00900196
-0.000209215
-0.0086426
-0.0120818
-0.0180838
0.00294759
0.00696777
-0.0154594
-0.016346
0.00354921
0.00264164
-0.00918888
0.00659885
-0.0145649
0.00746935
-0.00934586
0.00296887
-0.0151508
0.00674716
-0.0180231
0.00276951
-0.0180727
0.00359321
-0.0138225
-0.110988
-0.174352
-0.143797
-0.0313188
-0.0872873
-0.0459328
-0.0580118
0.119044
0.0331599
-0.0159382
-0.0415371
0.0474349
0.0586641
0.065891
-0.00701073
-0.0115682
-0.0205672
-0.0116485
-0.074923
-0.103613
-0.0777118
-0.110448
-0.161432
-0.0774675
-0.121955
-0.166452
-0.0598531
-0.0442414
-0.0887884
-0.097195
-0.059502
-0.0576012
-0.0970037
0.00376099
0.00247243
-0.00489874
-0.0252456
-0.00443783
0.0159425
-0.0161926
0.0173784
-0.0263907
-0.00590723
-0.00626385
-0.019079
0.0162222
0.0149511
0.0151289
0.0244519
0.00630259
0.0261825
0.0171406
0.0240958
0.00256077
0.00215993
-0.00369434
0.00658049
-0.00160695
0.00403938
-0.00406413
0.00288695
0.0169306
0.025722
0.0234594
0.00203612
0.0241101
0.00612566
0.0145955
0.00400694
-0.00112585
-0.00441818
0.00243916
-0.00368573
0.00653125
0.00175421
0.0380364
-0.000450843
0.0201151
0.0379785
0.000253557
-0.0385741
0.00154529
-0.0335737
0.00297633
-0.039007
0.00241052
-0.0331096
0.0200138
0.037606
-7.9221e-05
0.0379634
-0.000585736
-0.0390935
0.00151074
0.00216649
-0.033385
0.00150231
-0.0337039
-0.0388207
0.00100653
0.0322025
0.00181935
0.0311862
0.0128655
-0.0241291
0.0105032
-0.0165773
0.0137301
-0.0235582
0.00866258
-0.00299202
0.0229903
-0.0019784
0.022923
-0.0013054
-0.0047014
0.0211246
0.00818784
0.00739424
0.00181983
0.030954
0.000740108
0.0322167
0.0136976
-0.017803
-0.0237884
0.00834204
-0.0241497
0.0104119
0.0126162
-0.0013674
0.0265746
0.0208708
-0.00517546
-0.0021844
-0.00334769
0.0229843
-0.0698385
-0.0584864
-0.0629434
-0.0645459
-0.0922591
-0.100066
-0.0846822
-0.0650684
-0.0789881
-0.0558593
-0.0785153
-0.0657257
-0.0841401
-0.0778947
-0.0713376
-0.071819
-0.0760248
-0.103443
-0.107662
-0.0935963
-0.0766042
-0.0723354
-0.0888899
-0.0789274
-0.0940635
-0.0898696
-0.0192732
-0.00245576
-0.00896239
-0.013457
-0.0061093
-0.012367
-0.0162267
-0.0278506
-0.0257245
-0.0338599
-0.0361548
-0.0266411
-0.0332365
-0.0373876
-0.0146858
-0.0144603
-0.0184673
-0.0221612
-0.0107967
-0.0163797
-0.0255848
-0.0174813
-0.0211055
0.00133732
0.00331187
-0.0183302
-0.0215307
-0.000119685
-0.00629273
-0.0207058
-0.00225181
-0.0256534
-0.00137511
-0.0213844
-0.00599397
-0.0215617
0.00195851
-0.024595
-0.00258568
-0.024335
-0.00111871
-0.0206042
-0.163848
-0.137892
-0.152025
-0.0926294
-0.102816
-0.111684
-0.0809182
-0.194179
-0.192821
-0.193503
-0.183325
-0.131736
-0.103931
-0.111401
-0.107163
-0.114297
-0.123548
-0.130988
-0.150573
-0.143028
-0.13981
-0.151473
-0.16804
-0.182296
-0.194931
-0.190958
-0.136453
-0.111445
-0.134485
-0.14176
-0.128415
-0.135203
-0.14054
-0.000429221
-0.00102276
-0.00772501
-0.0283719
-0.00718616
0.0137971
-0.0180187
0.0151642
-0.02907
-0.00800502
-0.00872146
-0.0208888
0.0143822
0.0128744
0.0139868
0.0234022
0.00557116
0.0247467
0.0163365
0.0227428
0.00145764
0.00128075
-0.00407006
0.00602949
-0.00233043
0.00353717
-0.00477345
0.00192558
0.0155895
0.0241369
0.0220354
0.000749395
0.0225967
0.00482651
0.0133048
0.00290429
-0.00211433
-0.00537455
0.0012508
-0.00462131
0.00533695
0.000653645
0.0376531
-0.000738344
0.0194725
0.0373416
-0.000194025
-0.0388418
0.00148785
-0.0337637
0.00277264
-0.0391649
0.00221457
-0.0334131
0.0192693
0.0367798
-0.000721676
0.0371863
-0.00114747
-0.0394553
0.00125324
0.0018379
-0.0338346
0.00123828
-0.0341101
-0.0392273
0.000996051
0.032248
0.00188332
0.0311956
0.0127645
-0.0241393
0.0105631
-0.0167121
0.0137541
-0.0236861
0.00857109
-0.00300656
0.0230448
-0.0018356
0.0229453
-0.00121164
-0.00471249
0.0211348
0.00805461
0.00722615
0.00173501
0.0309038
0.000649511
0.0321804
0.0135482
-0.0179864
-0.0240305
0.00813556
-0.0243239
0.0102632
0.0124178
-0.00144659
0.0265598
0.0208303
-0.00531321
-0.00225758
-0.00345336
0.0229647
-0.0721075
-0.0737121
-0.0772673
-0.069363
-0.101116
-0.0935738
-0.0848977
-0.0801774
-0.0911294
-0.059516
-0.0915779
-0.0699318
-0.0830575
-0.0721252
-0.0655073
-0.0703483
-0.0668878
-0.0854558
-0.0921169
-0.0856013
-0.072154
-0.065683
-0.0770162
-0.0763435
-0.0844326
-0.0792089
-0.0277572
-0.0147663
-0.0203738
-0.0217322
-0.0187806
-0.0205527
-0.0245578
-0.0310493
-0.0275993
-0.033914
-0.0335725
-0.0301561
-0.0345764
-0.0373676
-0.0196126
-0.0196882
-0.0203954
-0.0247567
-0.0155986
-0.0215463
-0.0276279
-0.0224878
-0.0268148
-0.00337654
-0.00109772
-0.0241298
-0.0264192
-0.00437442
-0.0104579
-0.0249708
-0.00514888
-0.028164
-0.00575805
-0.0257348
-0.00880571
-0.0252921
-0.0016769
-0.0271398
-0.00518034
-0.0280267
-0.00452769
-0.0232273
-0.134516
-0.104344
-0.112035
-0.0844999
-0.0848598
-0.0950193
-0.0692202
-0.153396
-0.139207
-0.172053
-0.181292
-0.12736
-0.126732
-0.129948
-0.10821
-0.131881
-0.124418
-0.12768
-0.129003
-0.120229
-0.125158
-0.1229
-0.117746
-0.128202
-0.162897
-0.155409
-0.118159
-0.0963525
-0.112499
-0.114192
-0.115146
-0.116145
-0.11379
-0.00131776
-0.0011722
-0.00925149
-0.0292163
-0.00821905
0.0123621
-0.0190309
0.0141337
-0.0292898
-0.00806903
-0.00924349
-0.0215248
0.0142135
0.0122768
0.0131101
0.0221741
0.00449012
0.0237854
0.0152137
0.021814
0.000594229
0.000568452
-0.00487143
0.0050863
-0.00297448
0.00263189
-0.00542529
0.00117026
0.0149417
0.0234728
0.021689
0.000363428
0.0219321
0.00419045
0.0129232
0.00234071
-0.0026383
-0.005745
0.00086492
-0.00513271
0.00473468
0.000270625
0.036972
-0.00130275
0.0189255
0.036767
-0.000661753
-0.0391738
0.0011954
-0.034188
0.00247637
-0.0395406
0.0019254
-0.0337755
0.0188397
0.0364378
-0.001017
0.0367459
-0.00152292
-0.0397213
0.00101689
0.00163364
-0.0340673
0.00100558
-0.0344055