/*--------------------------------*- C++ -*----------------------------------*\
  =========                 |
  \\      /  F ield         | OpenFOAM: The Open Source CFD Toolbox
   \\    /   O peration     | Website:  https://openfoam.org
    \\  /    A nd           | Version:  10
     \\/     M anipulation  |
\*---------------------------------------------------------------------------*/
FoamFile
{
    format      ascii;
    class       surfaceScalarField;
    location    "2000";
    object      phi;
}
// * * * * * * * * * * * * * * * * * * * * * * * * * * * * * * * * * * * * * //

dimensions      [0 3 -1 0 0 0 0];

internalField   nonuniform List<scalar> 
25241
(
-0.735523
0.644866
29.8719
0.0856165
-1.063
1.17851
-0.113166
64.0991
0.00705761
0.167874
-1.27513
1.40664
-0.243077
72.1742
0.356931
-1.54753
6.3403
-0.347418
324.233
0.249808
0.322255
-0.0459795
-1.6655
-1.56053
-1.616
-0.197564
-1.63036
1.76069
0.0915644
80.7135
0.281403
-7.04464
6.87063
-1.13294
336.681
0.431505
0.449353
0.23833
3.63119
42.7921
1.47075
-6.6637
-5.41607
2.16472
5.89795
-2.04865
342.411
1.09363
-6.44563
6.83349
-1.3082
356.541
0.887662
-7.01278
7.16855
-0.982949
362.257
7.76046
-1.9316
1491.48
0.379164
0.56668
-0.272551
-0.0617882
-7.35701
-7.58151
-7.40973
-7.69215
7.85697
7.71001
7.80539
0.309638
7.80345
-0.498452
370.343
-2.22972
1475.95
1.00823
1.08589
0.544628
0.0447913
-7.77039
-7.77105
-7.84398
-8.21279
-0.474636
-0.106601
3.99441
71.881
1.7197
-0.628612
-0.404473
-0.705597
-0.519961
-0.0431208
-0.516972
-4.64502
12.578
9.71285
43.9938
322.698
-1.75892
-4.66277
-1.89458
30.6431
-8.50181
1521.75
1.60222
1.44325
1.96904
1.61001
-5.31456
-4.99222
-8.83886
-9.73316
31.6153
-6.78907
1557.74
1.01119
0.917222
1.31688
1.1829
32.3466
-5.4223
1560.6
0.561671
-0.283369
0.998509
1.64586
32.9166
-3.91686
1558.19
33.3214
-3.27211
1565.08
1.02882
0.250145
-0.384785
0.868958
-2.60138
1545.94
0.759072
2.55494
91.9752
-0.126974
0.364281
-9.00026
13.1418
12.9543
362.694
-10.4632
2.41101
-1.4396
-38.9263
-11.5215
12.2657
39.3668
380.574
32.4464
-8.22126
1590.05
-27.0921
-17.7529
75.626
45.9891
-13.5618
-13.7338
0.477828
-4.69947
33.2555
-9.14025
1591.71
33.8013
-7.96016
1615.81
34.1771
-6.53966
1612.83
34.5585
-4.96751
1610.88
34.7983
-3.9835
1615.12
-2.89802
1598.26
38.6414
1630.56
27.2713
21.6953
29.3905
25.9133
44.3109
1690.9
-12.8463
-32.6371
10.1295
4.45613
40.0306
1635.6
-38.4678
-50.1542
28.3106
49.537
33.3953
1666.71
35.4241
1650.94
35.7938
1664.48
35.8624
1657.24
35.9937
1653.35
36.026
1655.5
1639.64
-29.8247
0.650822
-0.754476
29.8284
0.0998987
-64.0049
-1.06312
1.17785
-0.107853
63.9915
0.00648402
-71.8199
0.158523
-1.26939
1.3988
-0.203833
71.7358
-323.329
0.347725
-1.5478
6.33727
-0.25128
322.711
0.267943
0.34469
-0.0627046
-1.6815
-1.53904
-1.59686
-80.3887
-0.215588
-1.61146
1.75216
0.155065
80.3085
0.288169
-7.03108
-336.399
6.86196
-0.97344
336.15
0.433928
0.440726
0.228153
-49.5274
-7.62699
49.914
0.980543
6.25983
2.03287
-5.75533
-342.2
5.97313
-1.70629
341.656
0.694596
-356.201
-6.47631
6.85397
-0.51957
355.648
0.385187
-7.08437
-362.19
7.2174
-0.0772281
361.749
7.75733
-0.244224
1490.12
-0.120262
0.0940423
0.252272
0.350051
-7.37839
-7.63501
-7.40135
-7.66611
7.85438
7.70312
7.8009
-0.134158
-370.286
7.85045
0.161739
370.165
-1.13832
1475.18
0.680025
0.839085
0.671948
0.0657891
-7.78779
-7.79639
-7.83455
-8.21112
0.986045
-0.337135
-73.4753
-7.47502
77.4404
1.89984
0.711471
0.43755
0.585128
-0.39393
-0.0702583
-0.308817
32.4658
-58.137
1473.86
-1.59763
-1.53911
-6.94721
-7.49164
17.7015
3.16412
5.1628
3.74263
-350.199
-355.115
-376.788
-378.286
30.7762
-5.52093
1523.2
0.656556
0.345633
2.65708
2.09695
31.7862
-4.68894
1558.72
-0.0458791
-0.197028
1.54133
1.40016
32.4485
-3.53645
1562.4
-0.588162
-1.43674
1.21425
1.89078
32.9442
-2.23019
1559.68
33.3425
-1.81837
1566.2
0.2769
-0.523003
-0.40869
0.948508
-1.41141
1546.35
-365.242
1.95882
9.76285
-3.9755
365.442
2.05065
-0.0983224
0.0865061
7.11321
-8.83427
-361.696
3.51513
-46.4547
374.576
18.2236
4.91458
8.64244
9.33301
-82.7081
1588.75
30.3527
29.0346
3.69501
5.94984
-6.30492
-6.57779
-9.11943
-9.17253
-386.138
-377.74
-394.218
-395.135
28.2154
-57.1481
1570.18
32.3521
0.596819
1581.45
33.9001
-5.89191
1615.46
34.2554
-4.84603
1613.78
34.569
-3.44833
1611.79
34.6918
-2.64092
1615.82
-1.72495
1598.56
39.5174
1638.41
3.78749
10.1539
-1.11779
1.38647
32.8841
1632.64
46.0716
55.7456
6.86775
5.60443
8.76735
1669.18
22.6807
1649.16
33.281
1640.35
35.719
1662.64
35.8228
1657.83
35.9434
1653.93
36.0286
1655.92
1639.97
-29.8149
0.646548
-0.749858
29.8278
0.0904242
-63.9486
-1.06581
1.17049
-0.13097
63.9675
0.00738914
-71.6478
0.182211
-1.25848
1.39655
-0.299363
71.6269
-322.386
0.382014
-1.53329
6.32377
-0.811815
322.204
0.307871
0.361114
-0.0619898
-1.6429
-1.53695
-1.60596
-80.193
-0.177311
-1.60779
1.7484
0.0469255
80.1828
0.325333
-7.02063
-335.931
6.85398
-1.19192
335.827
0.464792
0.443144
0.229586
-49.575
-1.21201
49.4087
1.49156
-0.113325
2.40254
-5.67755
-341.326
5.93091
-2.38176
341.051
1.18892
-355.29
-6.41967
6.79288
-1.20314
354.931
1.11358
-7.02147
-361.42
7.15397
-0.850344
361.024
7.7241
-2.47557
1488.57
0.57205
0.685816
0.763405
0.800488
-7.31454
-7.60541
-7.36226
-7.60686
7.84964
7.72123
7.79623
0.403215
-369.874
7.78954
-0.331846
369.737
-1.9986
1474.22
0.978655
1.0457
0.939297
0.226398
-7.75223
-7.76737
-7.79964
-8.17981
0.084628
-0.447747
-78.0973
78.0948
1.89169
-0.527049
0.123225
-0.0951862
0.301543
-0.450269
-0.376363
-0.502034
29.909
-12.7404
1472.88
-7.5331
-7.74708
-7.6147
-8.16485
3.81924
2.84169
4.01324
4.19893
30.765
-8.53748
1521.75
1.67947
1.24551
3.36644
2.83875
31.7574
-6.16901
1558.28
0.678265
0.491014
2.27707
2.16738
32.3628
-4.55618
1562.44
0.0853402
-0.838011
1.99324
2.66684
32.9569
-2.98628
1559.6
33.3473
-2.30432
1566.09
0.734433
-0.2164
0.0793817
1.42462
-1.62926
1546.13
0.0160212
-365.473
9.83129
1.04039
365.533
0.00805632
-0.611887
-0.514044
0.194549
-9.78019
-375.016
9.40499
-1.27236
375.088
0.274355
0.500813
0.606473
33.5191
-10.2242
1588
3.27574
4.75769
3.15146
3.70149
-9.23868
-9.80013
-9.14083
-9.25076
32.2222
-7.94522
1566.68
33.5017
-7.81853
1579.45
34.0342
-6.60657
1615.37
34.2165
-5.08164
1614.12
34.5235
-3.5317
1612.03
34.7507
-2.6162
1615.9
-1.61974
1598.58
42.1748
1637.87
-0.951193
-0.290899
-1.39105
-0.286793
40.4291
1631.33
0.885169
1.06594
0.599165
1.0759
34.8886
1671.86
34.0119
1647.67
35.7826
1637.76
35.9714
1662.63
35.8958
1658.25
35.9524
1654.28
35.9759
1656.19
1640.11
-29.8159
0.640495
-0.744073
29.8282
0.0913006
-63.9424
-1.06332
1.16876
-0.13486
63.9645
0.00730674
-71.6231
0.184533
-1.26642
1.39536
-0.311186
71.6209
-322.115
0.386437
-1.53221
6.2965
-0.946277
322.076
0.316543
0.363381
-0.0627957
-1.64143
-1.53589
-1.60457
-80.1545
-0.171752
-1.60681
1.74748
0.0281029
80.1574
0.335962
-7.01614
-335.728
6.84998
-1.29313
335.706
0.474677
0.441731
0.228844
-49.0831
-1.25928
48.9918
1.46472
-0.114239
2.53927
-5.58664
-340.985
5.85358
-2.68471
340.863
1.41784
-354.797
-6.37538
6.7784
-1.63411
354.611
1.42482
-6.98191
-360.925
7.14143
-1.35623
360.697
7.69167
-4.10754
1487.74
0.876732
0.961788
0.93021
0.952611
-7.30349
-7.59787
-7.30324
-7.57386
7.81841
7.68972
7.79084
0.666834
-369.526
7.78259
-0.708409
369.476
-2.84962
1473.55
1.17282
1.2157
1.0544
0.29916
-7.7452
-7.78868
-7.79425
-8.14897
0.092393
-0.430691
-78.0803
78.0625
1.85032
-0.54635
0.12518
-0.0849046
0.307593
-0.43875
-0.363565
-0.493416
29.9644
-14.222
1472.73
-7.55657
-7.83246
-7.60272
-8.16168
3.98831
3.12142
4.13585
4.31253
30.6036
-10.3879
1520.88
2.16009
1.78341
3.57441
3.10727
31.5602
-7.68004
1557.59
1.25244
1.07765
2.58594
2.49654
32.3443
-5.89795
1561.73
0.691916
-0.247728
2.35543
3.02842
32.8896
-4.12934
1559.07
33.2816
-3.23362
1565.59
1.18279
0.154419
0.340476
1.67004
-2.30844
1545.69
0.0456167
-365.514
9.8675
0.969615
365.546
0.0460589
-0.595294
-0.493868
0.129089
-9.81234
-375.039
9.43627
-0.989254
375.028
0.136906
0.521445
0.589031
35.1538
-12.915
1587.82
3.3994
4.99317
3.23845
3.76564
-9.24331
-9.81017
-9.15909
-9.2445
33.4124
-11.7172
1565.92
33.5941
-9.9656
1578.85
33.8983
-7.66642
1615.05
34.2053
-5.94292
1613.86
34.5179
-4.25715
1611.84
34.7452
-3.22501
1615.67
-2.09881
1598.41
42.1817
1637.34
-0.842895
-0.214034
-1.25139
-0.142642
40.476
1630.95
0.557629
0.943816
0.683238
1.14677
38.144
1671.64
36.4738
1647.39
36.0619
1637.43
35.8928
1662.64
35.8893
1658.3
36.0077
1654.33
36.0315
1656.26
1640.13
-29.8155
0.6363
-0.741346
29.8278
0.0926976
-63.9407
-1.0606
1.16627
-0.135721
63.9634
0.00732969
-71.6176
0.185127
-1.26475
1.39387
-0.313684
71.617
-322.045
0.387321
-1.53122
6.29301
-0.979707
322.036
0.318966
0.362955
-0.0635329
-1.65218
-1.53491
-1.59155
-80.1441
-0.17059
-1.60607
1.74678
0.0236418
80.1503
0.339184
-7.0134
-335.654
6.84761
-1.32653
335.66
0.478348
0.441245
0.228022
-48.8465
-1.29146
48.7963
1.45984
-0.118238
2.58148
-5.5732
-340.875
5.86078
-2.76815
340.774
1.48363
-354.592
-6.3634
6.74387
-1.77465
354.503
1.51829
-6.9473
-360.723
7.13365
-1.53245
360.55
7.68632
-4.79433
1487.34
0.966585
1.04331
0.978065
0.99603
-7.29699
-7.56564
-7.29818
-7.56841
7.78733
7.68521
7.7864
0.75369
-369.347
7.77819
-0.858964
369.36
-3.37327
1473.22
1.24657
1.29453
1.09547
0.323261
-7.74091
-7.78461
-7.79083
-8.17139
0.0950144
-0.427334
-78.031
78.0135
1.83009
-0.553616
0.130111
-0.0806974
0.311283
-0.435516
-0.361006
-0.490741
29.875
-14.7673
1472.92
-7.55145
-7.79652
-7.60007
-8.15362
4.04851
3.20523
4.19075
4.35865
30.4981
-11.2004
1520.36
2.30443
1.97093
3.62934
3.18603
31.5777
-8.55124
1557.01
1.47298
1.31462
2.67865
2.59191
32.2596
-6.76235
1561.26
0.944889
-0.00144059
2.46291
3.14129
32.8684
-4.92903
1558.6
33.3185
-3.91826
1565.1
1.40289
0.36016
0.437763
1.75939
-2.87898
1545.34
0.0690427
-365.524
9.87534
0.874714
365.557
0.0719308
-0.569624
-0.472461
0.15766
-9.82465
-375.021
9.43756
-1.06647
375.051
0.1371
0.547388
0.581868
35.1328
-13.6381
1587.85
3.49742
5.12539
3.34478
3.84101
-9.19821
-9.77377
-9.13824
-9.22798
33.4469
-12.6427
1565.48
33.5574
-10.8945
1578.43
33.8177
-8.53778
1614.78
34.1302
-6.77963
1613.57
34.5045
-5.03939
1611.58
34.6791
-3.90093
1615.48
-2.6443
1598.15
42.1143
1636.98
-0.702136
-0.0664053
-1.156
-0.052634
40.4986
1630.51
0.683388
1.09526
0.792879
1.24877
38.2206
1671.41
36.6203
1647.09
35.9743
1637.27
35.8147
1662.51
35.8185
1658.21
35.8855
1654.3
36.0248
1656.11
1640.09
-29.8156
0.634112
-0.740469
29.8282
0.0937466
-63.9395
-1.05898
1.16462
-0.135964
63.9624
0.0074292
-71.6156
0.185073
-1.26345
1.39263
-0.314459
71.6158
-322.021
0.387345
-1.5304
6.29034
-0.989339
322.02
0.319463
0.363034
-0.0635266
-1.65133
-1.53412
-1.59075
-80.1404
-0.170217
-1.60544
1.74614
0.0221882
80.1477
0.340476
-7.01117
-335.625
6.84568
-1.33938
335.641
0.479624
0.440936
0.227718
-48.7351
-1.30801
48.7046
1.45524
-0.116752
2.59662
-5.54311
-340.833
5.82878
-2.7976
340.748
1.50369
-354.523
-6.35728
6.73809
-1.82279
354.461
1.54748
-6.94199
-360.618
7.10381
-1.59205
360.501
7.6825
-5.08782
1487.14
0.994622
1.06894
0.994561
1.01053
-7.29304
-7.56125
-7.29476
-7.5645
7.78351
7.6821
7.78329
0.783808
-369.266
7.77506
-0.916956
369.306
-3.60087
1473
1.27389
1.33028
1.1102
0.330873
-7.73804
-7.75561
-7.78845
-8.16859
29.8502
-14.9788
1473.18
-7.55294
-7.79314
-7.60379
-8.15169
4.10713
3.2664
4.22356
4.38163
30.4177
-11.5981
1520.1
2.36818
2.05341
3.64656
3.22117
31.4492
-9.0265
1556.71
1.55588
1.40799
2.70689
2.62497
32.1883
-7.25515
1560.95
1.04696
0.0993099
2.50235
3.18024
32.7983
-5.40867
1558.31
33.251
-4.37316
1564.81
1.49994
0.443013
0.470229
1.79108
-3.27712
1545.1
0.177983
-9.82057
-375.067
9.43104
-1.11582
0.141528
0.562647
0.590009
35.1037
-13.9948
3.56558
5.21138
3.87219
-9.1866
-9.76384
-9.22189
33.3824
-13.081
1565.31
33.4313
-11.4067
1578.19
33.802
-9.09812
1614.48
34.1159
-7.34481
1613.34
34.4371
-5.56271
1611.41
34.6688
-4.38297
1615.25
-3.1075
1597.96
42.087
-0.612339
0.00925554
-1.11806
-0.0318048
40.4262
0.77078
1.17887
0.826047
1.26998
38.1984
36.5519
1646.85
35.9059
1637.13
35.8033
1662.32
35.808
1658.09
35.8769
1654.25
35.9603
1656.01
1639.99
-29.8164
0.632733
-0.739815
29.8291
0.0943894
-63.9386
-1.05803
1.16359
-0.136097
63.9617
0.00747886
-71.6147
0.185081
-1.26257
1.39177
-0.314729
71.6152
-322.01
0.386996
-1.52978
6.28829
-0.993147
322.013
0.319772
0.362944
-0.0639699
-1.65072
-1.53354
-1.59018
-80.1389
-0.170095
-1.60495
1.74563
0.0215894
80.1467
0.340955
-7.00941
-335.612
-1.34406
0.480127
0.440626
0.227699
-48.6842
-1.3161
48.6635
1.4497
-0.112941
2.60329
-5.53731
-340.814
5.82301
-2.80959
340.735
1.51197
-354.518
-6.32874
6.73439
-1.84186
354.442
1.55892
-6.96349
-360.585
7.10083
-1.61535
360.504
7.68022
-5.21562
1.00465
1.07731
1.00122
1.01718
-7.29052
-7.55868
-7.29248
-7.56227
7.78111
7.68031
7.7814
0.794907
-369.228
7.77294
-0.9418
369.282
-3.75273
1.28724
1.34813
-7.73612
-7.75343
-7.78676
-8.16679
29.8385
-15.0867
1473.46
-7.5567
-7.79339
-7.6078
-8.15411
4.13539
3.29019
4.25543
4.39616
30.4029
-11.8197
1519.99
2.38969
2.09147
3.6599
3.23238
31.4353
-9.27333
1556.53
1.60259
1.44797
2.72161
2.64547
32.175
-7.50968
1560.76
1.08638
0.151375
2.52287
3.19429
32.7866
-5.66301
33.2401
-4.6141
1.55178
0.500448
0.483706
1.80384
-3.50205
33.3751
-13.2757
1565.21
33.4198
-11.7133
1578.04
33.7344
-9.43438
1614.32
34.05
-7.69018
1613.21
34.483
-5.90674
34.6602
-4.70024
-3.39381
36.5403
1646.7
35.9531
1636.95
35.7369
1662.27
35.7427
1657.98
35.9274
35.954
-29.8173
0.631788
-0.739026
29.8299
0.0946189
-63.938
-1.05742
1.16292
-0.136019
63.9611
0.00746695
-71.6142
0.185071
-1.26195
1.39115
-0.314805
71.6147
-48.6656
-1.32021
48.6508
1.44513
-0.110153
2.60535
-5.53263
-340.803
5.84237
-2.81433
340.702
1.51448
-354.503
-6.32539
6.73174
-1.84887
354.432
1.56348
-6.96133
-360.57
7.09885
-1.62578
29.8365
-15.1148
-7.56169
-7.7968
4.16608
3.30288
4.28124
4.40425
30.3957
-11.907
2.39653
2.10716
3.66011
3.24142
31.4271
-9.39616
1.61056
1.46164
2.72912
2.64653
-7.6572
1.10611
0.171155
33.374
-13.3804
33.4112
-11.8542
33.7258
-9.61676
-7.87011
36.5913
35.8882
35.7296
-29.8178
0.631176
-0.738349
29.8303
0.0946319
-48.6673
1.44248
-0.108771
-21.7083
-52.6756
13.1702
66.0188
347.016
-14.5927
4.65841
3.68575
3.44389
3.64204
-7.22366
-6.85617
-6.66685
-6.86299
12.0288
22.9165
383.049
33.1888
-25.8485
-67.384
-27.7528
35.0146
20.5265
-17.1827
-13.0902
-3.96551
-4.61469
-13.9735
45.6397
-27.232
-22.2879
-34.0972
-27.7098
37.3141
-10.2231
1.55063
11.6591
36.9551
38.8984
-22.3017
-42.5251
43.5791
56.7193
39.3211
0.365138
0.441821
-0.437835
-0.42156
20.0662
-1.20204
20.1993
0.325591
-20.1749
1.37071
-0.518615
2.52266
88.3857
0.654311
0.0357217
0.359267
0.0496448
2.19829
-2.35116
2.15524
-2.14847
87.4258
-5.01343
86.3314
-86.2912
5.13082
2.44736
2.16481
-4.86467
88.8979
-88.4954
4.50436
-2.20693
-0.545421
18.4635
0.433301
-0.379426
2.44652
88.9987
2.81478
14.1806
-13.9019
-3.08378
90.8789
18.7026
0.397488
-18.7408
-0.335552
-1.22581
89.834
-4.47856
-89.4579
4.18062
2.08658
91.0019
1.89477
-1.96519
-90.3991
1.71656
-2.24892
0.300317
-2.59328
2.70581
-0.683488
20.4699
20.6645
0.392267
-0.0952716
-20.7187
0.233792
-0.476572
0.400488
-0.149505
0.256204
-0.559617
20.7169
20.661
0.370879
-0.115315
-20.7164
0.238928
-0.439133
0.381804
-0.168968
0.263769
-0.532872
20.7173
20.6631
0.367204
-0.130848
-20.7179
0.254862
-0.436379
0.378244
-0.181193
0.279142
-0.530817
20.7177
0.364783
-0.139113
-20.7161
0.262811
-0.433536
0.342975
-0.878327
-19.9962
1.10045
-0.582643
-0.0890468
17.8952
0.388187
14.5274
4.28981
-12.7022
77.3093
-0.731895
-0.719532
-1.38247
-1.42173
18.343
-0.743189
-18.3423
0.716074
0.351977
79.3358
-19.894
-1.74136
-80.1693
20.77
1.69887
-2.90693
-4.73988
-24.966
-16.9215
-19.0173
58.8499
9.70169
-0.475957
-0.225509
-0.120563
22.3905
0.200864
-0.473222
-21.6915
-23.9793
-9.52934
-20.5533
62.631
10.6887
0.696077
-0.879633
18.7441
-0.493134
0.209374
-6.86554
-6.69304
-87.4697
2.01566
95.6028
3.40976
0.210601
-0.348845
15.2719
1.55902
-1.07857
-0.448322
0.391043
-0.663554
18.7636
0.50833
3.92132
-12.3928
-13.9742
-7.66006
-15.6744
41.4806
-2.56604
-4.22281
80.0795
1.00447
-23.0152
-19.2755
-21.726
-20.1888
0.651336
3.50755
-11.0794
-1.85852
-5.92547
-1.53434
11.7554
-4.52361
-0.589735
-0.790213
-0.585272
0.991018
18.2649
0.373498
-13.1445
-0.463733
12.2268
0.0601267
80.6571
18.2478
-0.112327
-18.2154
0.101986
0.370203
80.0664
-0.50661
1.77049
-81.0391
1.39915
-1.69027
-0.152791
18.687
-2.76194
-2.0951
7.14699
1.53597
90.3594
1.03425
-19.8069
19.7872
-0.758208
90.7455
18.6093
0.459852
-18.6542
-0.423865
-0.0863637
91.1724
-2.29308
-0.9887
-90.9627
0.845017
2.22701
91.0463
2.12142
-0.703322
-90.8882
0.583219
-2.15944
0.12167
18.2108
0.400385
-2.28291
1.46937
1.43819
-1.67537
81.1171
18.2208
-0.125165
-18.1899
0.105616
0.359439
80.1453
-0.193974
1.8137
-81.1787
1.11487
-1.70129
-0.435836
18.6486
-0.200688
-2.32348
0.403885
2.28754
90.999
2.16962
-0.380312
0.570302
-2.16349
90.8502
18.5855
0.439723
-18.6305
-0.400363
-0.109679
91.1626
-2.34852
-0.497815
-90.9851
0.371537
2.29739
90.9775
2.09588
-0.776988
-90.8378
0.671673
-2.13025
0.122006
18.1826
0.390464
-2.25401
1.44243
1.4048
-1.67166
81.2238
18.1968
-0.129308
-18.1635
0.107764
0.355378
80.2104
-0.188672
1.80644
-81.256
1.12002
-1.69221
-0.417354
18.6271
-0.223897
-2.35172
0.335252
2.32431
90.9838
2.14225
-0.452836
0.615096
-2.15417
90.8272
18.5742
0.43624
-18.6188
-0.399579
-0.122907
91.1478
-2.35579
-0.525636
-90.975
0.410138
2.29851
90.9738
2.0883
-0.783959
-90.8285
0.678843
-2.12843
0.124798
18.1588
0.386504
-2.26188
1.44053
1.41438
-1.66651
81.2839
-0.133039
-18.1478
0.110675
0.352757
80.2358
-0.195789
1.79597
-81.2857
1.1393
-1.68955
-0.416807
18.6161
-0.233551
-2.3557
0.366379
2.32263
90.9722
2.13648
-0.467702
0.625775
-2.15229
90.8315
0.433415
-18.6057
-0.397562
-0.131457
91.1435
-2.35538
-0.545007
-90.9714
0.433188
2.2951
90.9801
2.08431
-0.791047
-90.8407
0.693232
-2.12591
-2.27737
1.45301
1.43342
-1.66431
81.2911
80.2257
-0.206269
1.79655
-81.287
1.1596
-1.68859
-2.35443
0.389953
2.31911
90.9668
2.13319
-0.485846
0.637043
-2.14995
90.8456
-2.29288
1.45322
1.45291
-1.66338
81.2759
80.1927
-0.218391
1.79623
-81.2585
1.17568
-1.68772
-2.30154
1.4529
1.4686
-1.66248
81.2352
17.3683
4.74742
-17.8884
-5.0201
80.4882
-0.450373
-17.8501
0.435936
0.348323
-16.9167
-1.39601
-76.4739
5.30829
2.07968
5.15225
2.13932
0.539842
-0.0928227
0.582983
-0.0916447
1.43665
-2.75504
2.36211
-87.5312
2.23287
4.22138
-3.64935
-2.57428
-87.5104
0.375268
-18.4051
-0.303267
-1.0061
-0.514951
1.16268
1.92699
-88.845
1.31493
-16.0548
15.7839
-1.07141
-90.8613
2.0154
0.521368
8.12268
-2.39953
20.2208
-0.0792857
0.580704
-20.2053
0.0567896
-0.573707
22.9888
-0.655042
-7.99288
-12.7977
1.46739
-3.01048
-0.0453438
0.501462
20.204
0.133754
-0.573037
-22.5322
19.0152
1.9779
-0.592066
2.13112
-0.582849
-0.800034
1.83946
0.0916858
-0.191413
18.103
-0.473999
-12.585
-20.9529
-18.2229
-18.5921
-19.1346
1.70875
-14.442
-13.5988
-24.0068
-9.00557
-17.4753
62.1144
9.96541
-0.202412
0.115184
18.558
-0.46247
-6.48793
68.8946
-16.0891
-18.6831
-18.7797
-18.4986
7.12975
-0.969191
21.5863
1.19891
0.408667
21.1702
-2.81488
1.05829
-22.8243
22.426
20.6618
0.407034
-0.248629
-20.6771
0.39615
-0.539219
21.6348
-6.62668
1.82674
-1.17358
5.5089
0.426141
-0.155881
20.7147
0.277109
-0.600309
-21.65
21.6261
1.8922
-0.955928
-0.613555
-0.298815
-1.59388
-0.929388
1.9131
0.594974
21.5948
-0.984582
1.86695
-0.466592
-0.38454
20.6615
0.375788
-0.10839
-20.7162
0.232648
-0.445294
21.5562
-0.515534
1.85076
-1.00718
-0.289458
0.385583
-0.159498
20.7157
0.255713
-0.535994
-21.5068
21.4517
1.84165
-1.01687
-0.558225
-0.211416
-0.549383
-1.01554
1.84488
-0.23055
21.397
-1.01649
1.83823
-0.566305
-0.200693
20.6624
0.368779
-0.123671
-20.7181
0.248231
-0.437697
21.3477
-0.575085
1.83453
-1.01605
-0.194103
0.379832
-0.1768
20.7187
0.272727
-0.532018
-21.3061
21.2738
1.82736
-1.01579
-0.595621
-0.183611
-0.584305
-1.0158
1.8309
-0.189256
21.2501
-1.01609
1.82416
-0.605657
-0.178693
20.6617
0.365835
-0.134413
-20.7183
0.260046
-0.43492
21.2346
-0.615804
1.82125
-1.01662
-0.173348
0.376972
-0.18689
20.7174
0.283494
-0.529292
-21.2258
1.81708
-1.01808
-0.62756
-0.165924
-0.623591
-1.01733
1.81886
-0.169108
20.2613
0.257459
-0.514898
-20.2811
0.582013
-0.304801
22.7701
-0.229228
1.68549
-1.09432
0.161381
-0.484613
20.2061
0.656983
-0.278494
-1.98265
0.0892419
-8.20763
1.84112
-0.688382
-0.758436
3.54709
8.1385
12.5314
-1.14033
-13.5704
3.51777
11.6006
-0.407627
7.20704
0.286545
0.870699
0.399933
5.82741
0.239301
0.332481
1.32863
-0.0555706
-4.50248
82.3535
15.3639
11.1025
338.814
-4.24869
-4.93703
-14.1332
-3.05868
-2.72353
-2.63203
-2.58652
364.149
13.804
-10.8322
-15.1662
-0.115567
-11.7872
40.5568
-0.461294
-0.272978
-0.313014
0.410464
0.968348
1.07694
-72.1072
-4.85065
1.72845
-60.4494
355.783
10.5628
24.1341
1.01126
-7.27447
-83.2862
-82.642
-86.1037
-85.3122
-1.08536
-2.05012
-2.0258
-1.15619
6.11008
351.453
5.08146
-1.47543
-2.20654
15.1985
-27.0814
-2.29924
-1.85165
-2.22004
379.283
-5.32679
-64.1462
-22.065
368.314
2.73941
8.84578
13.289
-2.52152
-2.18239
-2.181
-2.50386
9.85531
387.536
13.8221
0.532197
13.8357
0.777339
387.68
9.1201
9.33702
-28.2487
11.2795
5.05084
11.0142
-91.1346
-91.0366
-92.6167
-92.79
-26.209
367.904
8.82392
7.20683
5.06601
9.99509
9.96444
390.321
388.206
9.14283
-30.6514
355.502
12.6022
4.8563
5.54583
-1.54315
-1.77611
-1.68028
-1.81437
6.61785
363.401
7.83099
1.64055
2.41141
5.83241
-1.01936
-1.95291
-1.92201
382.744
0.0742203
0.291788
-0.108161
-0.457439
-0.509576
-0.384222
-78.086
1.90956
-0.479969
-7.15669
355.215
3.62169
1.53161
2.81862
-1.94356
-1.96889
-2.27072
-1.79872
8.4102
363.774
0.611115
0.495095
1.11928
1.13198
-2.17501
-2.0637
-2.08587
382.456
-5.01342
355.386
1.56333
0.20881
1.27946
-2.00791
-1.92622
-1.78869
-2.3024
8.49289
363.654
0.620232
0.6992
1.09737
0.857862
-2.06231
-2.10077
-2.03836
382.946
0.0922879
0.305393
-0.0860104
-0.431892
-0.494137
-0.364454
-78.0856
1.85567
-0.557012
-4.79084
355.295
2.24523
1.2716
1.52199
-1.91255
-1.9884
-2.2857
-1.7792
8.5088
363.357
0.694093
0.636336
0.848141
1.06616
-2.147
-2.03021
-2.03258
382.201
-5.00889
355.452
1.50813
0.195017
1.2622
-1.97587
-1.90153
-1.77128
-2.27551
8.44029
363.311
0.643602
0.703651
1.08088
0.861912
-2.0264
-2.09116
-2.02469
382.793
0.0939958
0.3109
-0.08132
-0.428067
-0.491339
-0.361571
-78.0368
1.83384
-0.563789
-4.81367
355.376
2.24858
1.24925
1.49671
-1.89359
-1.96636
-2.27001
-1.76594
8.48085
363.1
0.698555
0.636816
0.848597
1.05503
-2.13878
-2.02148
-2.02233
382.064
-5.04404
355.523
1.50431
0.193664
1.26059
-1.95947
-1.88795
-1.76243
-2.2655
8.42484
363.143
0.644575
0.7043
1.07322
0.870397
-2.02034
-2.08622
-2.01989
382.774
0.0980029
0.311884
-0.0788596
-0.425214
-0.488932
-0.359335
-77.9896
1.82076
-0.570039
-4.86434
355.423
2.26357
1.26313
1.50604
-1.88451
-1.95522
-2.26359
-1.76077
8.47229
363.005
0.702797
0.643146
0.859916
1.05999
-2.13459
-2.01784
-2.01843
382.069
-5.09473
355.529
1.52295
0.209854
1.27964
8.42027
-2.01714
-2.08348
-2.01717
382.813
-4.90733
355.393
2.27777
1.28089
1.52611
382.097
-5.14127
355.485
1.53977
0.21613
1.29131
382.84
-4.93375
355.308
2.29528
1.29293
1.5427
382.108
-5.161
1.54821
0.231484
1.30407
50.738
-20.9582
-7.76149
1.32118
-1.78258
-1.88384
83.0733
83.179
85.4657
84.075
364.134
21.1035
55.1589
0.875855
0.374232
0.839729
-0.169773
-0.368901
0.0150431
-71.7289
-5.77746
1.66996
-1.13855
-82.7844
0.946792
-17.2731
5.30367
6.37916
6.82881
15.14
4.90952
-46.3062
-1.24124
-1.50877
-1.34694
2.43857
12.3491
17.4977
2.45729
13.0515
-47.8624
10.9373
0.394732
-0.669115
16.6791
-0.383099
1.10268
-1.08889
-1.55373
-0.297926
20.0715
1.27788
0.568438
10.5225
0.440822
-1.57973
-0.753268
16.8729
3.36726
-3.10563
0.568424
-0.586029
-20.145
-0.428384
0.416099
-9.91396
10.1067
0.335407
0.842587
-14.6569
16.1392
-0.573066
0.55001
-9.86859
0.390133
0.132923
-15.657
-0.193804
0.0158082
81.4555
0.526992
0.206496
-0.313513
-0.328673
0.519462
0.554868
0.550746
2.8262
-2.61427
-19.3749
1.77255
77.0706
-19.8497
-20.1607
-21.0285
-20.7812
20.271
0.588761
-0.0735548
88.1052
2.41739
0.767835
0.228338
0.63722
0.170215
-1.24623
18.3008
2.69572
86.113
-15.7784
78.6679
-19.8423
-20.0598
-21.1167
-20.8279
2.04787
85.385
-16.0069
0.558404
20.5318
-0.61307
-0.435641
1.85127
-14.3185
-80.0565
79.8543
82.4747
-1.99697
2.08544
-0.097651
0.806072
0.251261
86.9963
3.112
8.05263
-1.92916
88.1379
2.01016
83.8759
2.01474
86.0855
1.27314
1.11313
0.695741
-0.544828
-0.577994
-0.590051
-0.171042
2.14694
-79.3023
78.7018
0.640221
0.524132
21.697
1.95459
78.2229
-2.72541
2.6863
-4.54789
-0.967973
-2.58259
-1.46142
13.4464
18.6533
0.641878
-18.576
-0.651292
-0.147115
75.4682
-20.9346
-17.9928
-17.193
-18.145
0.575833
0.356672
0.364395
0.5955
77.884
2.60229
-0.219954
-0.196091
-1.44159
-0.184219
1.92539
-2.17042
-6.18326
-5.78488
-1.9781
18.9571
-0.170972
2.12517
77.9311
-1.81701
0.633513
0.570679
18.7228
-0.563441
-0.122126
-74.3152
0.659164
74.8593
-0.9778
0.533023
0.423769
0.405807
0.543037
-77.3707
-1.95084
76.8714
0.513165
1.16578
0.355034
0.395452
1.71494
-1.69429
-1.61404
0.457048
0.539535
0.578239
0.438412
2.17685
-0.111708
-0.0249387
0.148167
0.400431
0.0496961
77.7752
-1.65296
0.517223
10.5097
0.385157
1.91761
15.3402
-5.46019
2.76088
1.94874
-0.600917
20.5491
0.337532
-1.76456
10.6508
0.392865
1.41485
17.1205
-2.73124
1.40831
0.252836
-0.581759
-20.663
0.41214
-0.138893
-10.6415
10.6021
0.354763
-0.081559
-15.9182
17.4451
0.110085
-0.221327
-10.6288
0.374985
-0.134932
-17.413
-0.13157
0.0886237
10.6223
0.359632
-0.123549
15.9384
-0.162895
0.125401
0.233061
-0.45648
20.6625
0.381851
-0.104086
10.5876
0.341811
-0.0740747
17.4574
0.079522
-0.188076
0.259172
-0.533655
-20.6603
0.383059
-0.164622
-10.6011
10.572
0.331219
-0.063239
-15.936
17.4377
0.0614107
-0.160645
-10.5744
0.342722
-0.11022
-17.4507
-0.188179
0.152391
10.5999
0.342829
-0.106913
15.9229
-0.189198
0.154619
0.243668
-0.438301
20.6617
0.369816
-0.119592
10.5718
0.331611
-0.059909
17.4212
0.0589438
-0.157217
0.276214
-0.531479
-20.663
0.378965
-0.178567
-10.6058
10.5795
0.333683
-0.0524672
-15.8765
17.3698
0.0487495
-0.150996
-10.5759
0.34474
-0.0984197
-17.3858
-0.196527
0.158528
10.6097
0.34537
-0.0964475
15.863
-0.199514
0.159393
0.257594
-0.435679
20.6626
0.366507
-0.133296
10.5836
0.334206
-0.050535
17.3557
0.0454245
-0.149698
0.284907
-0.528579
-20.6614
0.376379
-0.187366
-10.6244
0.335603
-0.0473111
-15.8345
0.038215
-0.147134
-10.5935
0.346827
-0.0928514
-17.3349
-0.207577
0.161321
2.18969
-0.595872
-20.0114
0.150687
-1.72931
-11.03
0.376041
0.653643
-16.7298
-0.347511
-1.26231
1.02555
-10.6739
0.261308
1.57221
-17.1304
0.156947
-3.76042
3.40822
18.4346
0.470737
-18.2282
-0.548447
0.451999
0.408643
0.426491
-0.370634
18.8958
-0.55455
19.4503
0.773706
6.25805
-0.487963
-7.11397
-18.8801
0.448105
18.4235
-0.36031
0.424706
-74.6134
77.6465
4.65437
-1.94126
-0.38222
-0.517417
1.925
-13.4618
6.69026
5.93937
4.02033
-19.7018
-22.0246
-19.5944
0.745493
-0.529116
-0.514705
-2.47515
-1.02841
8.86086
-0.313235
-0.00240611
0.76536
-1.13143
-0.483546
-0.739162
19.4348
0.315663
-0.602992
-0.00495346
0.0576158
0.0392586
-0.665107
-1.63546
0.0506019
-0.662409
3.74173
-1.44636
0.189616
18.4131
-0.833838
0.0203326
-1.90611
-0.0255741
-1.92809
0.806503
-18.8329
7.99819
0.681925
-0.648636
-0.63306
4.26438
0.291646
-2.62525
17.5309
-0.494482
0.554706
-2.22302
1.00194
18.2482
-0.15063
-18.2174
0.148093
0.378804
78.7768
3.25134
-5.62147
1.72054
-0.447547
-0.374028
-2.3239
2.66477
79.3492
2.7307
-2.02885
-2.60359
-0.390631
-0.471739
1.61159
0.580048
-0.0730752
18.217
0.120769
0.409628
-79.581
79.6665
2.4421
-2.60747
-0.385035
-0.480485
1.63419
-0.837299
0.148438
2.52631
-1.10417
1.61829
-0.475009
-0.392267
-2.61173
0.206873
-23.5176
77.4514
-2.41038
-0.0376852
0.331696
0.322488
-0.104908
-0.427493
80.0968
0.739315
2.81683
4.13746
2.39088
6.51255
-19.3949
18.6187
0.473112
-18.6684
-0.435765
-0.236345
78.6677
0.117481
-24.9551
-6.64414
77.9918
-2.075
0.441888
0.346144
0.30084
0.463188
1.63828
78.3489
-1.10366
-6.85999
80.3987
1.70721
1.65428
0.0703003
1.32592
-0.0735943
-3.34768
0.462987
18.6609
-0.463524
-0.197485
-78.3051
-0.652824
78.4207
-1.70354
0.443259
0.372799
0.342706
0.468448
-1.75059
-1.81018
0.38315
0.449573
0.476127
0.344744
1.81156
78.2299
-1.56606
-1.87711
-80.397
-1.80544
80.4081
0.538572
-0.140999
0.390782
-0.362928
1.88279
-0.513894
1.91245
-0.390257
0.40459
-0.160762
0.537487
-0.490272
78.1888
-1.71585
-0.701279
18.2379
-0.126357
-18.2059
0.107271
0.36284
79.7254
2.4221
-0.826593
1.64116
-0.484106
-0.382877
-2.6089
0.180329
79.7499
2.40333
-0.810951
-2.60497
-0.380434
-0.481279
1.64606
0.203694
-0.0914165
18.1982
0.123414
0.393293
-79.7767
79.7815
2.37805
-2.59995
-0.376892
-0.477516
1.65137
-0.802732
0.222854
2.39239
-0.824418
1.6492
-0.479116
-0.378447
-2.60215
0.215802
78.4855
-0.418274
-1.71015
0.36442
0.434168
0.461987
0.3365
18.5958
0.444163
-18.643
-0.403945
-0.101405
-0.423802
78.529
-1.71043
0.42912
0.356271
0.330918
0.458825
-78.1812
1.77271
78.1832
-1.79509
-0.403474
-1.78749
80.3969
1.85924
-0.345093
0.412029
-0.130252
0.563095
-0.560369
-1.78764
-0.410467
80.3943
1.84071
0.578786
-0.121662
0.42456
-0.340116
-0.606894
0.434334
18.6375
-0.419647
-0.215886
-78.5579
-0.428981
78.5784
-1.72158
0.429483
0.352461
0.329505
0.460384
-0.426106
-1.72197
0.352844
0.42871
0.459267
0.329039
1.78182
78.179
-1.80845
-0.395236
-80.3957
-1.77259
80.4003
0.57849
-0.115527
0.432287
-0.340697
1.83312
-0.619667
1.8351
-0.341939
0.428891
-0.121701
0.580067
-0.599996
78.1935
-1.80946
-0.406658
18.207
-0.126347
-18.1756
0.106457
0.357306
79.7983
2.3674
-0.821418
1.65281
-0.476181
-0.37565
-2.59837
0.234536
79.8018
2.35732
-0.806989
-2.59671
-0.374349
-0.474932
1.65446
0.237799
-0.0954174
18.1705
0.12339
0.388372
-79.816
79.8152
2.34457
-2.59381
-0.371974
-0.472503
1.65719
-0.804162
0.24146
2.35218
-0.820775
1.65593
-0.473666
-0.373084
-2.59517
0.24033
78.5861
-0.425825
-1.72291
0.352918
0.430127
0.461291
0.330358
18.5797
0.437759
-18.6242
-0.400038
-0.11683
-0.428067
78.5867
-1.72475
0.430626
0.353418