/*--------------------------------*- C++ -*----------------------------------*\
  =========                 |
  \\      /  F ield         | OpenFOAM: The Open Source CFD Toolbox
   \\    /   O peration     | Website:  https://openfoam.org
    \\  /    A nd           | Version:  10
     \\/     M anipulation  |
\*---------------------------------------------------------------------------*/
FoamFile
{
    format      ascii;
    class       volVectorField;
    location    "2000";
    object      U;
}
// * * * * * * * * * * * * * * * * * * * * * * * * * * * * * * * * * * * * * //

dimensions      [0 1 -1 0 0 0 0];

internalField   nonuniform List<vector> 
8643
(
(0.154096 -0.0182495 12.3371)
(0.22145 -0.0187555 13.375)
(0.260263 -0.0319008 14.3449)
(0.281044 -0.00999057 15.1883)
(0.29694 0.00218124 14.9712)
(0.307256 -0.0209012 15.6581)
(0.149575 -0.0454857 11.4362)
(0.248977 -0.0456217 15.8281)
(0.294297 -0.0330575 16.4049)
(0.313853 -0.031535 16.7238)
(0.33797 -0.0201541 17.1882)
(0.345628 -0.0135927 16.9576)
(0.353342 -0.0167872 17.2927)
(0.286077 -0.0461089 14.5045)
(0.301318 -0.100623 16.6982)
(0.332674 -0.0549622 17.6511)
(0.345357 -0.0426087 17.8513)
(0.353767 -0.0342662 17.9716)
(0.361755 -0.0251013 18.01)
(0.372101 -0.0207028 18.0402)
(0.373345 -0.0167159 18.0307)
(0.451841 0.0134424 16.778)
(0.421563 -0.0400936 17.0447)
(0.409215 -0.0630236 17.6115)
(0.37675 -0.0641202 18.3149)
(0.370397 -0.0557731 18.5107)
(0.373982 -0.045068 18.589)
(0.377571 -0.0366695 18.6296)
(0.381907 -0.0279138 18.6284)
(0.38759 -0.0224945 18.617)
(0.389279 -0.0172052 18.5927)
(0.487628 0.00997541 18.8512)
(0.462105 -0.0269645 18.7915)
(0.438288 -0.0498813 18.9161)
(0.413163 -0.0574054 19.1098)
(0.401491 -0.0524444 19.1844)
(0.398897 -0.0450881 19.1878)
(0.398305 -0.0374728 19.1712)
(0.39964 -0.0291955 19.1335)
(0.402159 -0.0235012 19.091)
(0.402896 -0.0175719 19.052)
(0.1556 -0.0178936 12.3344)
(0.221671 -0.0187066 13.3732)
(0.260386 -0.031748 14.3397)
(0.280877 -0.00974225 15.1843)
(0.296822 0.00237056 14.9674)
(0.307135 -0.0208432 15.6568)
(0.16179 -0.11261 12.906)
(0.253922 -0.0459097 15.8225)
(0.294726 -0.0329691 16.4002)
(0.313913 -0.0314742 16.7189)
(0.337863 -0.0200301 17.1852)
(0.345508 -0.013578 16.955)
(0.353232 -0.0167283 17.2914)
(0.306529 -0.0297981 14.4422)
(0.334668 -0.0750934 17.2874)
(0.333006 -0.0549978 17.6452)
(0.345954 -0.0425319 17.8483)
(0.353858 -0.0342113 17.969)
(0.361683 -0.0251244 18.0081)
(0.372016 -0.0206616 18.0388)
(0.373223 -0.0167148 18.0298)
(0.458305 0.0198067 17.1422)
(0.41918 -0.0261563 17.1416)
(0.416207 -0.0560703 17.9724)
(0.383841 -0.068066 18.3657)
(0.371852 -0.0559487 18.5062)
(0.374584 -0.0451667 18.5872)
(0.377684 -0.0367889 18.6283)
(0.381878 -0.0279999 18.6274)
(0.387535 -0.0225354 18.6163)
(0.389186 -0.0172267 18.5921)
(0.48301 0.00966766 18.8901)
(0.461546 -0.0238128 18.8445)
(0.443702 -0.0465862 18.9639)
(0.418624 -0.0594412 19.1342)
(0.40344 -0.0535236 19.1797)
(0.399595 -0.045349 19.1865)
(0.398453 -0.0376022 19.1705)
(0.399641 -0.0292799 19.1329)
(0.402125 -0.0235466 19.0906)
(0.402826 -0.0175928 19.0516)
(0.156842 -0.0184677 12.3367)
(0.222288 -0.0188526 13.3732)
(0.260517 -0.0318468 14.3382)
(0.280842 -0.00981334 15.1828)
(0.296743 0.00233895 14.9656)
(0.307094 -0.0208653 15.6558)
(0.166964 -0.0975169 12.8665)
(0.252754 -0.046554 15.8222)
(0.295081 -0.0331188 16.3975)
(0.31393 -0.0314587 16.7155)
(0.33779 -0.0201026 17.1831)
(0.345429 -0.013526 16.9526)
(0.353179 -0.0167327 17.2903)
(0.29993 -0.0442057 14.5213)
(0.332581 -0.074808 17.2996)
(0.331668 -0.0554652 17.6433)
(0.346062 -0.0426468 17.8465)
(0.353817 -0.0342641 17.9672)
(0.361638 -0.0251091 18.0065)
(0.371989 -0.0206675 18.0374)
(0.373182 -0.0167038 18.0288)
(0.459259 0.0184368 17.1661)
(0.421898 -0.0377474 17.2107)
(0.412794 -0.0583527 17.996)
(0.381694 -0.0689383 18.3664)
(0.371132 -0.0558281 18.5055)
(0.374655 -0.0452026 18.586)
(0.377668 -0.0368015 18.627)
(0.381857 -0.0279741 18.6262)
(0.387515 -0.0225224 18.6154)
(0.389151 -0.0172117 18.5914)
(0.484259 0.00968199 18.8945)
(0.460581 -0.0278643 18.8606)
(0.44159 -0.0508933 18.9734)
(0.417099 -0.0597949 19.1358)
(0.402776 -0.0531586 19.1796)
(0.399604 -0.0453228 19.1859)
(0.398464 -0.037604 19.1697)
(0.399635 -0.0292656 19.1322)
(0.402108 -0.0235307 19.0899)
(0.402792 -0.0175828 19.0511)
(0.155175 -0.0184016 12.3374)
(0.221913 -0.0188144 13.3736)
(0.260365 -0.0318416 14.3381)
(0.280754 -0.0098672 15.1824)
(0.29669 0.00231619 14.9653)
(0.307051 -0.0208853 15.6554)
(0.164619 -0.0981833 12.7488)
(0.250841 -0.0467943 15.8225)
(0.294751 -0.0330524 16.3968)
(0.313689 -0.0315053 16.7145)
(0.337714 -0.0201568 17.1824)
(0.34541 -0.0135675 16.9516)
(0.353135 -0.0167604 17.2897)
(0.295203 -0.0459725 14.5205)
(0.331038 -0.0744053 17.3061)
(0.330513 -0.0555512 17.6422)
(0.345769 -0.042596 17.8457)
(0.353594 -0.0342953 17.9662)
(0.361547 -0.0251112 18.0057)
(0.37194 -0.0206967 18.0367)
(0.37315 -0.0167078 18.0282)
(0.460888 0.0165715 17.1761)
(0.42474 -0.0384672 17.2166)
(0.411629 -0.0582047 17.9986)
(0.379885 -0.068574 18.3648)
(0.370263 -0.0556764 18.5048)
(0.374353 -0.0452186 18.5854)
(0.377449 -0.0367871 18.6263)
(0.38176 -0.0279539 18.6255)
(0.387464 -0.0225213 18.6147)
(0.38912 -0.0172036 18.5908)
(0.485134 0.00924974 18.8936)
(0.460795 -0.0279817 18.8589)
(0.440844 -0.0511548 18.9718)
(0.41559 -0.0594577 19.1347)
(0.401797 -0.0528949 19.1791)
(0.399252 -0.0453449 19.1854)
(0.398268 -0.0375848 19.1691)
(0.39954 -0.029247 19.1316)
(0.402057 -0.023522 19.0894)
(0.40276 -0.0175747 19.0506)
(0.153938 -0.0183584 12.3374)
(0.221397 -0.0187726 13.3737)
(0.260077 -0.0318094 14.3382)
(0.280629 -0.00987196 15.1823)
(0.296592 0.00231112 14.9653)
(0.306993 -0.0208887 15.6553)
(0.16402 -0.0990492 12.6937)
(0.249987 -0.0468923 15.8224)
(0.294401 -0.0329342 16.3964)
(0.313426 -0.0315074 16.7142)
(0.337601 -0.0201575 17.1821)
(0.345336 -0.0135764 16.9512)
(0.353085 -0.016773 17.2895)
(0.292615 -0.046878 14.5125)
(0.33038 -0.0748503 17.3118)
(0.330108 -0.0556651 17.6413)
(0.345526 -0.042552 17.8451)
(0.353307 -0.0343102 17.9659)
(0.361429 -0.0251114 18.0052)
(0.371862 -0.0207046 18.0364)
(0.373095 -0.0167086 18.0278)
(0.461218 0.0149593 17.1804)
(0.425402 -0.0389038 17.2212)
(0.410791 -0.0589913 18.002)
(0.379673 -0.0684052 18.3634)
(0.370039 -0.0557366 18.5039)
(0.374103 -0.0452642 18.5847)
(0.377244 -0.036795 18.6258)
(0.381649 -0.0279593 18.6251)
(0.387384 -0.0225241 18.6143)
(0.389063 -0.0172005 18.5904)
(0.485174 0.00830649 18.8933)
(0.460443 -0.0289526 18.8569)
(0.440298 -0.0513011 18.9695)
(0.415069 -0.0593191 19.1326)
(0.401564 -0.0529735 19.1784)
(0.399009 -0.0454162 19.1848)
(0.39808 -0.0375939 19.1686)
(0.399434 -0.0292553 19.1312)
(0.401981 -0.023528 19.089)
(0.402704 -0.0175739 19.0502)
(0.153305 -0.0183673 12.3375)
(0.221076 -0.0187576 13.3736)
(0.259828 -0.0317962 14.3382)
(0.280517 -0.00987193 15.1821)
(0.296491 0.002307 14.9653)
(0.306924 -0.0208882 15.6552)
(0.163364 -0.0994859 12.6677)
(0.249597 -0.0470233 15.8222)
(0.294184 -0.0329306 16.3961)
(0.313251 -0.031524 16.714)
(0.33748 -0.0201522 17.182)
(0.345245 -0.0135747 16.9511)
(0.353025 -0.0167769 17.2893)
(0.330073 -0.075363 17.3172)
(0.329881 -0.0559068 17.641)
(0.345331 -0.0426008 17.8447)
(0.353202 -0.0343356 17.9656)
(0.361337 -0.0251194 18.005)
(0.371786 -0.0207097 18.0362)
(0.373039 -0.0167093 18.0276)
(0.42532 -0.039557 17.2255)
(0.410298 -0.0596377 18.0067)
(0.379734 -0.0683403 18.3637)
(0.36994 -0.0558739 18.5034)
(0.373951 -0.0453408 18.5842)
(0.377119 -0.0368181 18.6254)
(0.381562 -0.0279743 18.6248)
(0.387311 -0.0225283 18.614)
(0.389006 -0.017202 18.5901)
(0.484993 0.0077923 18.8939)
(0.460263 -0.0292626 18.8573)
(0.440168 -0.0514181 18.9697)
(0.414922 -0.0593948 19.1318)
(0.401487 -0.0531152 19.1779)
(0.39888 -0.0454855 19.1843)
(0.397966 -0.0376175 19.1683)
(0.39935 -0.0292717 19.1309)
(0.401911 -0.0235352 19.0887)
(0.402648 -0.0175752 19.0499)
(0.152919 -0.0183778 12.3379)
(0.220885 -0.0187496 13.3735)
(0.259655 -0.031793 14.3382)
(0.280429 -0.00987962 15.1821)
(0.296406 0.00230011 14.9653)
(0.306859 -0.0208889 15.6552)
(0.16263 -0.0995269 12.656)
(0.249332 -0.0470956 15.822)
(0.29403 -0.0329519 16.3959)
(0.313132 -0.0315485 16.7138)
(0.337416 -0.0201548 17.1819)
(0.345168 -0.0135795 16.951)
(0.352971 -0.0167781 17.2893)
(0.329903 -0.0756281 17.322)
(0.3298 -0.0560035 17.641)
(0.345194 -0.0426472 17.8445)
(0.353121 -0.034359 17.9655)
(0.361242 -0.0251295 18.0049)
(0.371723 -0.0207142 18.036)
(0.372967 -0.0167103 18.0275)
(0.379782 -0.0681294 18.3642)
(0.369861 -0.0559246 18.5032)
(0.37384 -0.0453884 18.584)
(0.377036 -0.0368365 18.6252)
(0.381494 -0.027987 18.6246)
(0.38725 -0.0225328 18.6139)
(0.388953 -0.0172044 18.59)
(0.414794 -0.0594324 19.1314)
(0.401416 -0.0531768 19.1777)
(0.398783 -0.0455245 19.1841)
(0.397887 -0.0376363 19.168)
(0.39929 -0.0292848 19.1307)
(0.401853 -0.0235414 19.0886)
(0.4026 -0.017577 19.0498)
(0.152652 -0.0183696 12.3383)
(0.220763 -0.0187394 13.3734)
(0.259534 -0.0317888 14.3381)
(0.162044 -0.0994225 12.6521)
(0.24914 -0.0471176 15.8218)
(0.293908 -0.0329617 16.3957)
(0.313049 -0.03156 16.7138)
(0.329851 -0.0757762 17.3259)
(0.329783 -0.0560529 17.6409)
(0.34512 -0.042667 17.8444)
(0.353062 -0.0343701 17.9654)
(0.379882 -0.0678964 18.3647)
(0.369805 -0.055959 18.503)
(0.373755 -0.0454159 18.5838)
(0.376975 -0.0368466 18.6251)
(0.414723 -0.0594314 19.131)
(0.401375 -0.0532133 19.1776)
(0.39871 -0.0455473 19.1839)
(0.397828 -0.0376488 19.1679)
(0.152473 -0.0183545 12.3385)
(0.161752 -0.0993449 12.6531)
(0.315082 -0.0892209 16.7352)
(0.333799 -0.0554682 17.6549)
(0.400476 -0.0700445 17.6676)
(0.382018 -0.0646306 18.3265)
(0.371643 -0.0554301 18.513)
(0.478358 0.00935025 18.8151)
(0.454023 -0.026621 18.8179)
(0.438445 -0.0480959 18.9497)
(0.415982 -0.0590078 19.1212)
(0.402825 -0.0529697 19.1851)
(0.282421 -0.0760419 12.7317)
(0.292984 -0.0759137 12.3291)
(0.433447 0.0174939 15.9165)
(0.392529 -0.0289055 15.9559)
(0.445782 0.0269648 16.2557)
(0.415379 -0.0118686 16.1462)
(0.310851 -0.0690322 13.8145)
(0.390615 -0.04154 16.1017)
(0.365252 -0.0605381 16.5217)
(0.335631 -0.0540187 13.5862)
(0.411395 -0.0238747 16.1522)
(0.388296 -0.0324674 16.4178)
(0.326723 -0.062885 12.4652)
(0.283274 -0.0584223 12.7903)
(0.286491 -0.0585658 12.7914)
(0.262754 -0.0653195 12.7897)
(0.270016 -0.065763 12.7909)
(0.260482 -0.0698813 12.7912)
(0.26794 -0.0700459 12.792)
(0.25868 -0.0722656 12.7901)
(0.291026 -0.0817705 12.7144)
(0.239169 -0.0412475 13.2725)
(0.314621 -0.121282 14.9569)
(0.243347 -0.0473442 13.0534)
(0.294101 -0.0698741 15.0112)
(0.352668 -0.0391182 13.6527)
(0.390304 0.0683013 13.5562)
(0.419668 -0.018993 13.6236)
(0.387239 -0.0145713 13.173)
(0.300607 -0.0410246 13.8752)
(0.194539 -0.00170721 12.2908)
(0.322211 0.002002 13.9769)
(0.242376 -0.0657188 11.6713)
(0.362598 -0.0563818 13.5731)
(0.328543 -0.0858891 14.2435)
(0.258604 -0.0348713 13.1031)
(0.337748 -0.0677543 15.248)
(0.247089 -0.045448 13.2186)
(0.331556 -0.0906539 15.3891)
(0.356346 -0.0353789 13.6788)
(0.399932 -0.0177892 16.2104)
(0.402935 -0.01805 16.5364)
(0.321048 -0.0548986 13.886)
(0.401882 -0.034559 16.3198)
(0.387141 -0.048664 16.637)
(0.246762 -0.0435351 13.2179)
(0.328099 -0.0912624 15.4055)
(0.237369 -0.0466403 13.2011)
(0.323148 -0.0914936 15.4176)
(0.321205 -0.053888 13.887)
(0.403522 -0.0342037 16.3206)
(0.385587 -0.0480764 16.6369)
(0.303902 -0.0593846 13.8711)
(0.407667 -0.0360693 16.3224)
(0.382236 -0.0461574 16.637)
(0.238137 -0.044377 13.1981)
(0.322417 -0.091658 15.4284)
(0.234394 -0.0474137 13.1831)
(0.321966 -0.091364 15.434)
(0.306502 -0.0574526 13.8723)
(0.408183 -0.0375947 16.3214)
(0.381819 -0.0465152 16.6364)
(0.301694 -0.0630446 13.8626)
(0.408374 -0.0388768 16.3223)
(0.381472 -0.0459742 16.6393)
(0.235353 -0.045187 13.1812)
(0.322356 -0.0914676 15.4417)
(0.232706 -0.048501 13.1721)
(0.322492 -0.0922679 15.4408)
(0.304508 -0.0609271 13.864)
(0.408274 -0.0397618 16.3215)
(0.381259 -0.0463015 16.6393)
(0.299688 -0.0652444 13.8537)
(0.407946 -0.0406706 16.3221)
(0.380962 -0.0468312 16.6427)
(0.322891 -0.0924056 15.4464)
(0.322891 -0.0933582 15.44)
(0.407792 -0.0411119 16.3211)
(0.380847 -0.0469655 16.6426)
(0.323228 -0.0934479 15.4441)
(0.32304 -0.0943207 15.434)
(0.323331 -0.0944071 15.4373)
(0.276871 -0.147396 15.0834)
(0.241785 -0.0506834 13.2586)
(0.330957 -0.0596314 15.0597)
(0.428306 0.0360288 15.9371)
(0.392093 -0.030415 15.9692)
(0.30788 -0.0681262 13.7933)
(0.380372 -0.0481498 16.1063)
(0.369152 -0.0457932 16.5662)
(0.245565 -0.00788379 11.6767)
(0.278483 -0.0780374 12.4029)
(0.191815 0.106509 9.58799)
(0.300977 -0.0815084 12.3427)
(0.308407 0.185151 9.27867)
(0.240537 0.0777464 9.6445)
(0.360611 0.0744577 13.8278)
(0.399526 0.0673123 13.7241)
(0.32926 -0.0156889 13.3243)
(0.306853 -0.0405998 13.4563)
(0.361099 0.00728326 13.4388)
(0.344946 -0.0315224 13.134)
(0.301422 0.0383288 11.0223)
(0.30847 -0.0559685 12.7751)
(0.26563 -0.0044748 11.9345)
(0.310964 -0.0549857 12.7841)
(0.254263 -0.01036 12.1148)
(0.258428 0.00294418 12.0849)
(0.24894 -0.0231899 12.1185)
(0.266236 -0.0618947 12.7896)
(0.244607 -0.0315702 12.1028)
(0.272597 -0.0622902 12.7905)
(0.242068 -0.0316023 12.046)
(0.242903 -0.0322084 12.0765)
(0.241079 -0.0314283 12.0145)
(0.261499 -0.0680295 12.7908)
(0.239951 -0.0315619 11.985)
(0.268909 -0.0683123 12.7919)
(0.237747 -0.0323024 11.9384)
(0.238805 -0.0318291 11.9592)
(0.236824 -0.0327613 11.9229)
(0.259501 -0.0712868 12.7906)
(0.236016 -0.0332632 11.9119)
(0.266986 -0.0713165 12.7913)
(0.234837 -0.0339568 11.902)
(0.235367 -0.0336579 11.9055)
(0.231316 -0.0715116 12.389)
(0.146141 -0.0810094 9.90613)
(0.242012 -0.0774864 12.4047)
(0.233244 0.025096 11.3463)
(0.160499 -0.141033 8.94155)
(0.307121 -0.0101528 12.5437)
(0.292231 -0.0135376 12.5092)
(0.300567 0.00927956 12.1708)
(0.272083 -0.0739006 13.0122)
(0.340887 -0.0861352 15.7052)
(0.381216 -0.0698695 16.5515)
(0.375618 -0.0900188 16.9331)
(0.304445 -0.0242715 14.3458)
(0.347194 -0.0776488 15.8874)
(0.38169 -0.0503074 16.5391)
(0.372983 -0.0748452 16.9956)
(0.438017 -0.00735954 16.9756)
(0.468936 0.0182926 17.88)
(0.457042 -0.00690784 17.8454)
(0.459618 0.0197873 17.0891)
(0.445582 -0.00821765 17.063)
(0.474119 0.0169759 17.9583)
(0.465545 -0.00714441 17.8969)
(0.359647 -0.0618024 16.1026)
(0.387449 -0.0387071 16.6286)
(0.382582 -0.0663869 17.0905)
(0.302747 -0.0417016 14.5168)
(0.361032 -0.0735875 16.1517)
(0.3808 -0.053956 16.6514)
(0.383598 -0.080227 17.1179)
(0.360373 -0.077669 16.1654)
(0.378181 -0.0548444 16.6517)
(0.381755 -0.0785927 17.1292)
(0.295901 -0.0457493 14.5223)
(0.359707 -0.07793 16.1719)
(0.376777 -0.0543345 16.6473)
(0.380635 -0.0768946 17.1297)
(0.359299 -0.0778285 16.1767)
(0.376024 -0.0544582 16.6427)
(0.379589 -0.0759674 17.131)
(0.293156 -0.0467272 14.5148)
(0.359474 -0.0773625 16.1801)
(0.375409 -0.0532998 16.6382)
(0.379547 -0.0745441 17.1307)
(0.359604 -0.0776049 16.183)
(0.374975 -0.0538667 16.6364)
(0.379489 -0.0748742 17.1331)
(0.291257 -0.0475616 14.5059)
(0.359956 -0.0778609 16.1845)
(0.374563 -0.0542398 16.6346)
(0.37961 -0.0750524 17.1333)
(0.36022 -0.078244 16.1858)
(0.374287 -0.0544529 16.6341)
(0.379762 -0.0753529 17.1365)
(0.360639 -0.0785601 16.1845)
(0.379846 -0.0755961 17.1365)
(0.360808 -0.0787769 16.1845)
(0.380041 -0.0758297 17.1388)
(0.361099 -0.0790021 16.1816)
(0.380135 -0.0759453 17.1383)
(0.361242 -0.0792923 16.1802)
(0.380348 -0.0761776 17.1397)
(0.336122 -0.0529535 15.7704)
(0.369321 -0.0668055 16.9027)
(0.288842 -0.0526937 14.5027)
(0.348769 -0.036938 15.7453)
(0.367315 -0.0740217 16.6273)
(0.381516 -0.0731653 17.0244)
(0.205159 -0.0878087 11.3808)
(0.296944 0.000723032 12.016)
(0.22602 -0.0558326 12.6407)
(0.180137 -0.0606171 11.1011)
(0.169505 -0.013377 11.3647)
(0.319247 -0.0813013 12.3166)
(0.192441 -0.105501 10.7187)
(0.376744 0.00958753 11.1413)
(0.212402 -0.100942 10.6072)
(0.353874 0.0363947 11.1812)
(0.388497 0.0492121 15.0751)
(0.409215 0.0750317 15.1965)
(0.405933 -0.0106251 14.9365)
(0.406285 0.0370561 14.7183)
(0.43682 -0.00543769 15.8429)
(0.440745 0.0172983 16.0499)
(0.428456 0.00697807 15.0206)
(0.436652 -0.00254199 15.9975)
(0.419249 0.013479 14.5398)
(0.393772 -0.016799 14.9762)
(0.362734 -0.0376268 14.977)
(0.41688 -0.0300725 15.862)
(0.408377 -0.00332341 16.0073)
(0.385704 -0.00413594 15.0444)
(0.420827 -0.00191436 15.9606)
(0.394225 -0.0356152 14.8084)
(0.311611 -0.00946628 14.492)
(0.257468 0.0161036 12.9603)
(0.320937 -0.0552155 15.117)
(0.31962 -0.058047 13.6229)
(0.229697 -0.0875218 12.6893)
(0.342676 -0.0286722 15.0116)
(0.314348 -0.0845157 14.6595)
(0.318727 0.0214017 14.5003)
(0.337401 -0.0607334 13.597)
(0.220372 0.0339739 12.5592)
(0.359175 -0.0167424 14.9686)
(0.248075 -0.066236 12.7576)
(0.362787 -0.0277403 15.0116)
(0.305193 0.0581136 14.3952)
(0.233667 -0.0851628 11.0827)
(0.383522 0.00373135 11.6418)
(0.329792 -0.0723048 12.6539)
(0.233384 -0.10501 11.4147)
(0.404043 -0.0071784 12.0372)
(0.298323 -0.0558665 12.7904)
(0.197062 -0.0767225 11.3902)
(0.312437 -0.0180301 12.3779)
(0.20908 -0.0710957 11.4036)
(0.324485 0.013491 12.3921)
(0.198254 -0.0690916 11.3803)
(0.309164 0.00490237 12.4125)
(0.272243 -0.0601451 12.7902)
(0.188149 -0.0740582 11.373)
(0.297575 -0.0253228 12.3916)
(0.2708 -0.0641489 12.7904)
(0.181433 -0.0733681 11.3542)
(0.284141 -0.0307906 12.3818)
(0.187734 -0.0654308 11.3539)
(0.288207 -0.00199342 12.4142)
(0.187904 -0.0664881 11.352)
(0.287347 -0.00260729 12.4047)
(0.262102 -0.0667476 12.7903)
(0.181754 -0.0746352 11.3534)
(0.283573 -0.0315879 12.3705)
(0.268424 -0.0692476 12.7921)
(0.183156 -0.077853 11.3613)
(0.281977 -0.0346256 12.3336)
(0.189207 -0.0700032 11.3571)
(0.285778 -0.00518842 12.3686)
(0.189599 -0.0708175 11.3609)
(0.285132 -0.00606269 12.3576)
(0.259996 -0.0706321 12.791)
(0.183449 -0.0786313 11.3657)
(0.281314 -0.0355544 12.3233)
(0.26657 -0.0717872 12.7909)
(0.184184 -0.0800082 11.382)
(0.279273 -0.0377728 12.3025)
(0.190399 -0.0724025 11.3763)
(0.283059 -0.0081813 12.334)
(0.277615 -0.0785334 12.5625)
(0.213411 -0.087944 11.4423)
(0.313452 0.021292 11.9119)
(0.195142 -0.0773602 11.231)
(0.292673 -0.0214372 11.4971)
(0.254145 -0.0280597 13.1402)
(0.277749 -0.0290618 14.1617)
(0.362046 -0.164312 13.9077)
(0.260254 -0.033469 13.0955)
(0.374695 -0.0692879 12.8992)
(0.463935 -0.130497 12.6906)
(0.383465 0.0491757 12.702)
(0.404448 0.0372091 13.6286)
(0.370286 0.0132297 13.3205)
(0.391935 0.0055913 12.5572)
(0.371489 0.00898617 13.3834)
(0.361602 0.0367743 13.2266)
(0.376082 0.00683904 13.2183)
(0.353301 -0.00601504 13.2652)
(0.278368 -0.0710672 12.5882)
(0.161882 -0.0811848 11.907)
(0.283527 -0.123032 11.4653)
(0.246342 -0.0171549 13.2516)
(0.272121 -0.0533909 11.3961)
(0.275202 -0.131482 13.0702)
(0.240768 -0.0864548 12.8813)
(0.2593 -0.0403162 13.2133)
(0.315382 -0.0357735 13.1983)
(0.314482 -0.0338566 13.3033)
(0.258847 -0.0373034 13.2163)
(0.313204 -0.0360934 13.3531)
(0.314938 -0.0340262 13.3368)
(0.257331 0.0176489 13.143)
(0.386788 -0.0197291 15.1539)
(0.340549 -0.0501553 13.8861)
(0.323172 0.0533299 14.6939)
(0.272345 -0.00695678 13.5429)
(0.331349 0.00355652 14.9506)
(0.37187 -0.0320211 15.2767)
(0.340426 -0.0475598 13.8904)
(0.274365 -0.009816 13.6241)
(0.273756 -0.00380087 13.5963)
(0.330364 -0.0130754 14.9805)
(0.35597 -0.0364032 15.2929)
(0.362692 -0.0335494 15.2867)
(0.329308 -0.0240058 14.9905)
(0.240231 -0.0472492 13.2124)
(0.310236 -0.036206 13.3657)
(0.307821 -0.0350408 13.3723)
(0.240392 -0.044936 13.2094)
(0.303915 -0.0330453 13.3796)
(0.305685 -0.0337767 13.3778)
(0.274404 -0.0211144 13.6437)
(0.307305 -0.0577096 13.8781)
(0.274475 -0.0287566 13.6554)
(0.326526 -0.045083 15.0036)
(0.35004 -0.040517 15.2979)
(0.327631 -0.0364023 14.9984)
(0.345337 -0.0430056 15.2998)
(0.309157 -0.0557328 13.8788)
(0.274386 -0.0352162 13.6663)
(0.274366 -0.0340112 13.6621)
(0.326357 -0.0468988 15.0062)
(0.343582 -0.0436647 15.3017)
(0.343928 -0.0434916 15.3007)
(0.326439 -0.0470931 15.0092)
(0.23572 -0.0468793 13.1909)
(0.302189 -0.0320293 13.3828)
(0.300831 -0.0321672 13.3834)
(0.236587 -0.0446877 13.1888)
(0.298604 -0.0325358 13.3861)
(0.299578 -0.0322604 13.3859)
(0.274346 -0.0361582 13.6686)
(0.302674 -0.0615032 13.8666)
(0.274312 -0.0370464 13.6695)
(0.32676 -0.0459925 15.0149)
(0.343371 -0.0438216 15.3027)
(0.326605 -0.0464359 15.0121)
(0.343259 -0.0440854 15.3036)
(0.305441 -0.0594514 13.868)
(0.274261 -0.0387521 13.6649)
(0.274285 -0.0378733 13.6679)
(0.327023 -0.0452351 15.0164)
(0.343157 -0.0444546 15.3046)
(0.343205 -0.0442122 15.3041)
(0.32719 -0.0450282 15.0173)
(0.233385 -0.0479942 13.1767)
(0.297697 -0.0326313 13.3883)
(0.297076 -0.0328598 13.3884)
(0.234441 -0.0457154 13.1754)
(0.296127 -0.0330674 13.3906)
(0.296496 -0.0329128 13.3906)
(0.274188 -0.0395445 13.6601)
(0.300668 -0.0642993 13.8583)
(0.274082 -0.0403889 13.6549)
(0.327393 -0.0448895 15.0173)
(0.34306 -0.0447043 15.3041)
(0.327327 -0.0448071 15.0172)
(0.342971 -0.0450866 15.3041)
(0.303508 -0.0621274 13.8596)
(0.27378 -0.0417189 13.6429)
(0.273931 -0.0410726 13.6489)
(0.327386 -0.0448701 15.0154)
(0.342674 -0.0457574 15.3022)
(0.342803 -0.0453985 15.3028)
(0.327375 -0.0450325 15.014)
(0.223514 -0.039709 13.0762)
(0.20316 -0.00870656 12.6182)
(0.219247 -0.0397331 13.1075)
(0.26505 -0.0411226 14.1113)
(0.210754 0.0291942 13.5154)
(0.34405 0.0645174 13.7889)
(0.314022 0.0388941 13.6947)
(0.377874 0.0819307 13.5083)
(0.402166 -0.040693 13.1275)
(0.392945 0.0421076 13.4153)
(0.355738 0.072196 13.5057)
(0.295157 -0.093459 13.2928)
(0.354834 -0.11278 13.0077)
(0.37706 0.00722113 13.6903)
(0.356786 0.000543226 13.6477)
(0.274654 -0.0683837 13.5786)
(0.238295 -0.0956192 12.7695)
(0.308109 -0.0576058 14.979)
(0.205318 0.0105378 12.1079)
(0.308779 -0.052232 13.9387)
(0.253748 -0.0843602 11.6513)
(0.312368 -0.0649015 14.4183)
(0.355628 -0.0738833 14.0246)
(0.346545 -0.0325054 13.5482)
(0.277993 -0.0669744 13.5887)
(0.242745 0.0460431 12.7696)
(0.343651 -0.0526778 15.1792)
(0.228661 -0.0580936 12.505)
(0.327182 -0.0503574 14.7882)
(0.307708 -0.0420053 14.3896)
(0.303954 -0.0495906 14.9537)
(0.243052 9.66647e-05 11.2853)
(0.193278 -0.00557489 9.80577)
(0.131533 -0.0792777 10.4782)
(0.260512 -0.0758987 12.453)
(0.19068 -0.079543 10.6861)
(0.228439 0.0219267 11.04)
(0.181167 -0.0597351 10.7303)
(0.181049 0.0326612 10.9492)
(0.304434 -0.0805889 12.3277)
(0.201908 -0.0937 10.5905)
(0.28509 0.0242981 11.0807)
(0.213103 -0.100284 10.6114)
(0.32689 0.017775 11.1129)
(0.356733 0.0859823 13.3016)
(0.355421 0.0910929 13.1634)
(0.385409 0.0340377 13.8796)
(0.354411 0.111154 14.0231)
(0.372699 0.051174 13.0216)
(0.366211 0.0746801 14.1031)
(0.360177 0.124641 13.6188)
(0.317149 -0.0264335 12.7265)
(0.347498 -0.0220078 13.3219)
(0.320422 -0.0176794 12.6918)
(0.352598 -0.0219741 13.2122)
(0.305003 -0.0790418 12.5089)
(0.341505 -0.0222483 13.3988)
(0.335467 0.0200545 12.8606)
(0.324422 -0.0620211 12.7425)
(0.230014 -0.0798032 11.4751)
(0.356643 -0.00102926 12.3243)
(0.240431 -0.0757845 11.4806)
(0.381712 0.0192552 12.3069)
(0.295184 -0.0563188 12.7891)
(0.22568 -0.0738677 11.4485)
(0.342826 0.0230446 12.3656)
(0.210129 -0.0796776 11.4243)
(0.327509 -0.00958588 12.354)
(0.277209 -0.0604942 12.791)
(0.183622 -0.0724742 11.3636)
(0.288524 -0.0287851 12.3943)
(0.191347 -0.0662734 11.3662)
(0.296968 0.000971961 12.4204)
(0.263775 -0.0636579 12.7894)
(0.188452 -0.0650074 11.3579)
(0.290486 -0.00110093 12.4199)
(0.181688 -0.072432 11.3573)
(0.285189 -0.0301334 12.3903)
(0.269429 -0.0671459 12.7914)
(0.18222 -0.0759288 11.3549)
(0.283101 -0.0326062 12.3579)
(0.188296 -0.0677611 11.3522)
(0.286816 -0.0033769 12.393)
(0.260999 -0.0690448 12.7912)
(0.188765 -0.0689798 11.3541)
(0.286326 -0.00429064 12.3806)
(0.182706 -0.07701 11.3576)
(0.282593 -0.0336214 12.3453)
(0.267457 -0.0707368 12.7917)
(0.183708 -0.0792306 11.3707)
(0.280601 -0.0364204 12.3147)
(0.189881 -0.071515 11.3655)
(0.284443 -0.00685242 12.3481)
(0.259069 -0.071817 12.7903)
(0.19015 -0.0720315 11.3707)
(0.283724 -0.00757697 12.3402)
(0.183959 -0.0796629 11.3762)
(0.279908 -0.0371539 12.3078)
(0.218347 -0.0712237 12.3821)
(0.153554 -0.0706 10.7051)
(0.227627 -0.0422155 11.1949)
(0.137143 -0.0578356 10.6423)
(0.0992147 -0.0587297 11.0778)
(0.213326 -0.0658252 12.4549)
(0.152875 -0.0836282 10.7376)
(0.227796 -0.0281908 11.2742)
(0.151811 -0.0779153 10.9225)
(0.231588 -0.0957954 11.1845)
(0.237779 0.0212028 11.0352)
(0.21866 -0.0351218 10.4725)
(0.22573 -0.0145079 10.3002)
(0.26701 -0.112898 15.4946)
(0.269502 -0.0848226 16.3393)
(0.199205 -0.10002 11.846)
(0.23785 -0.0722493 15.2662)
(0.2995 -0.0790665 15.6807)
(0.279038 -0.0851135 16.3223)
(0.264834 -0.0540755 11.9479)
(0.260035 -0.0907876 10.142)
(0.361891 -0.0520017 14.7537)
(0.280748 -0.102956 13.6292)
(0.313092 -0.0538843 14.8695)
(0.32754 -0.0859051 13.1754)
(0.271994 0.133415 14.2424)
(0.153988 -0.0363259 10.7952)
(0.143909 -0.0416612 10.7003)
(0.183096 -0.0199442 11.2608)
(0.190741 -0.0137743 11.3171)
(0.195851 -0.0176475 12.1772)
(0.255158 0.0283162 12.7993)
(0.244338 0.0423361 12.7788)
(0.20945 -0.00948915 12.1671)
(0.172784 -0.0778795 11.9344)
(0.201601 0.0126745 11.8576)
(0.245352 -0.0456358 13.192)
(0.224681 -0.0996118 12.8091)
(0.233997 -0.0727274 12.4582)
(0.17422 -0.107349 11.7762)
(0.250721 -0.00766827 12.8015)
(0.221676 -0.0672283 15.2659)
(0.248699 -0.094931 15.4658)
(0.260605 -0.0789196 16.3375)
(0.169721 -0.0882879 12.5584)
(0.22857 -0.0673966 15.2732)
(0.272355 -0.0824632 15.6399)
(0.272162 -0.0775199 16.3389)
(0.203808 -0.0584645 14.4699)
(0.279552 0.0463631 12.0604)
(0.148783 -0.122869 10.3382)
(0.278329 -0.12169 13.5742)
(0.3242 -0.034631 14.8768)
(0.286058 -0.139458 14.8232)
(0.243892 -0.158579 13.328)
(0.390584 -0.128442 14.4501)
(0.11453 -0.109623 11.1973)
(0.23545 -0.102268 13.5866)
(0.217136 -0.17172 13.2946)
(0.20707 -0.0887989 14.6194)
(0.21219 -0.0925993 13.4848)
(0.156083 -0.0855099 13.4441)
(0.245703 -0.0807233 14.6469)
(0.187209 -0.076913 11.326)
(0.304998 0.00714349 11.3674)
(0.302761 -0.0292575 12.0939)
(0.294848 -0.0107726 10.577)
(0.274475 -0.0779013 11.4424)
(0.365701 -0.0186039 13.0559)
(0.369633 0.000112617 12.9141)
(0.351695 -0.00173816 12.2267)
(0.259221 -0.0101134 11.9073)
(0.239312 -0.020577 11.5762)
(0.326163 -0.0248966 12.5578)
(0.241201 -0.0191236 13.0771)
(0.241277 -0.0190724 13.0763)
(0.238906 -0.0332419 13.2638)
(0.239743 -0.0220113 13.5335)
(0.238967 -0.0331894 13.2625)
(0.239748 -0.022126 13.5324)
(0.242393 -0.00809331 13.8708)
(0.267088 -0.00814868 14.1671)
(0.242417 -0.00797907 13.8696)
(0.266924 -0.00801123 14.1654)
(0.271323 0.0122917 13.9997)
(0.287495 -0.0206885 14.4433)
(0.271213 0.0123593 13.9986)
(0.287425 -0.0205497 14.4431)
(0.282961 -0.0285009 14.5745)
(0.305865 -0.00360004 14.8438)
(0.282942 -0.0284444 14.5742)
(0.305666 -0.00354157 14.8421)
(0.200313 -0.0555844 14.4656)
(0.201241 -0.0583267 14.4659)
(0.222063 -0.0151779 13.3119)
(0.214314 -0.0351337 14.8088)
(0.252332 -0.0277684 15.2959)
(0.154849 -0.0176444 12.3344)
(0.222148 -0.0149584 13.3097)
(0.215717 -0.0349776 14.8059)
(0.252634 -0.0273906 15.2933)
(0.254706 -0.0201426 14.1058)
(0.271847 -0.0259787 15.567)
(0.288756 -0.0287115 15.8279)
(0.221472 -0.0186474 13.3734)
(0.254823 -0.0200875 14.1036)
(0.271897 -0.0259269 15.5651)
(0.288831 -0.0286149 15.8258)
(0.266042 -0.0243188 14.6269)
(0.293488 -0.0294404 16.0019)
(0.298907 -0.0237053 16.1054)
(0.260293 -0.0317309 14.3413)
(0.266023 -0.0243667 14.6241)
(0.293495 -0.0293622 15.9989)
(0.298861 -0.0236874 16.1022)
(0.29644 -0.010289 15.3614)
(0.307334 -0.013416 16.1745)
(0.319059 -0.0153266 16.2674)
(0.280952 -0.00981698 15.1863)
(0.296322 -0.0101327 15.3594)
(0.307209 -0.0133501 16.1719)
(0.318977 -0.015219 16.2653)
(0.319001 -0.0223047 15.5199)
(0.332586 -0.0107793 16.3322)
(0.33775 -0.0203791 16.3901)
(0.296806 0.00238648 14.9682)
(0.318946 -0.0222131 15.5187)
(0.332502 -0.0106696 16.3302)
(0.337665 -0.0203904 16.3888)
(0.160677 -0.107069 13.5001)
(0.129831 -0.0384258 11.4)
(0.114687 -0.101898 13.3202)
(0.180188 -0.0825795 13.4852)
(0.219447 -0.0805476 14.6484)
(0.20145 -0.0593394 14.6372)
(0.158848 -0.068737 13.4678)
(0.241357 -0.0190744 13.0759)
(0.241559 -0.0191321 13.0757)
(0.23906 -0.0331973 13.2619)
(0.239723 -0.0218818 13.5313)
(0.239183 -0.0332412 13.2613)
(0.239774 -0.0222067 13.531)
(0.242331 -0.00795963 13.8695)
(0.266961 -0.00803164 14.1654)
(0.242444 -0.00803778 13.8688)
(0.266842 -0.00807251 14.1645)
(0.271209 0.0123486 13.9983)
(0.287385 -0.0205794 14.4422)
(0.27113 0.0123129 13.9976)
(0.287357 -0.0206029 14.4424)
(0.282848 -0.028479 14.5734)
(0.305759 -0.00353789 14.8435)
(0.282864 -0.0284815 14.5735)
(0.30557 -0.0035088 14.8418)
(0.201886 -0.0589185 14.462)
(0.202583 -0.0601904 14.4733)
(0.22244 -0.015057 13.3095)
(0.21787 -0.0353464 14.8043)
(0.253441 -0.0276112 15.2908)
(0.157201 -0.0183953 12.3358)
(0.223057 -0.0152644 13.3091)
(0.217912 -0.0354783 14.8046)
(0.253654 -0.0280392 15.29)
(0.25489 -0.0201127 14.1026)
(0.272303 -0.0259634 15.563)
(0.289009 -0.0285484 15.8235)
(0.222186 -0.018781 13.3728)
(0.2551 -0.0201937 14.1016)
(0.272567 -0.0261347 15.5619)
(0.289137 -0.0286915 15.822)
(0.265941 -0.0240264 14.6214)
(0.293556 -0.0292721 15.996)
(0.298852 -0.0235431 16.0991)
(0.260471 -0.0318279 14.3383)
(0.266004 -0.0244277 14.6211)
(0.293612 -0.0293812 15.9943)
(0.298913 -0.0236221 16.0975)
(0.296251 -0.0101211 15.3578)
(0.307111 -0.0132927 16.1693)
(0.318883 -0.0151573 16.2633)
(0.280862 -0.00976562 15.1832)
(0.296216 -0.0101306 15.3565)
(0.307093 -0.0131926 16.1675)
(0.318822 -0.0150713 16.2614)
(0.318892 -0.0221911 15.5176)
(0.332441 -0.0106732 16.3283)
(0.337621 -0.0203297 16.3875)
(0.296714 0.00237004 14.9657)
(0.31885 -0.0222318 15.5168)
(0.332384 -0.0106651 16.3269)
(0.3376 -0.0203424 16.3864)
(0.231849 -0.0697689 15.2843)
(0.284802 -0.0872741 15.7626)
(0.276324 -0.0760648 16.3353)
(0.168099 -0.0976655 12.9114)
(0.232594 -0.0708896 15.291)
(0.281806 -0.0918807 15.7712)
(0.27651 -0.0768707 16.3326)
(0.443455 0.0302338 16.2887)
(0.409781 -0.0103132 16.1839)
(0.440597 0.03084 16.2951)
(0.408765 -0.015109 16.2449)
(0.182162 -0.0341712 12.5161)