# vtk DataFile Version 2.0
sampleSurface
ASCII
DATASET POLYDATA
POINTS 3098 float
0.746192 0 -5.00894e-05 -6.50534 1.11022e-16 -4.7391e-05 0.739507 0 7.49995 7.99812 0
1.94289e-05 -6.5124 -1.11022e-16 7.49992 7.99235 -1.11022e-16 7.50019 -13.7546 0 -1.50031e-05
0.734852 -1.11022e-16 14.9998 15.2496 -1.11022e-16 6.60617e-05 -13.7602 0 7.49982 -6.51784
-1.11022e-16 14.9998 15.2414 -1.11022e-16 7.50009 7.98685 0 14.9998 -13.7648 0
14.9999 -20.9938 0 4.36099e-06 15.2348 -1.11022e-16 14.9998 -20.9936 2.22045e-16 7.49977
22.5022 0 1.49541e-05 0.735071 0 22.4998 -6.51815 -1.11022e-16 22.4999 22.4915
0 7.49989 7.98745 -1.11022e-16 22.4998 -20.9933 -1.11022e-16 14.9999 -13.7652 1.11022e-16
22.4999 22.4829 -1.11022e-16 14.9998 15.2356 0 22.4998 -28.2515 0 2.62893e-05
-28.2534 0 7.50012 29.7556 -1.11022e-16 -4.54549e-05 0.735819 1.11022e-16 29.9999 29.7426
0 7.4992 -6.51767 0 29.9999 -20.9933 -1.11022e-16 22.5 7.98856 0
29.9999 22.4839 1.11022e-16 22.4999 -28.255 0 15 -13.7649 0 30
29.7256 0 14.9997 15.237 0 29.9999 -35.5072 -1.11022e-16 5.90779e-05 -28.2551
0 22.5 -35.5123 1.11022e-16 7.50007 -20.993 1.11022e-16 30 36.9932 0
-7.53554e-05 29.7252 1.11022e-16 22.4999 22.4857 -1.11022e-16 29.9999 0.736256 -1.11022e-16 37.5
37.0663 -1.11022e-16 7.5 -6.5174 0 37.5 7.98913 1.11022e-16 37.5 -35.5169
-2.22045e-16 15 36.9578 0 14.9999 -13.7648 0 37.5 15.2378 0
37.5 -28.255 0 30 -35.5174 0 22.5 29.7273 -1.11022e-16 30
-42.7594 0 0.000106246 -20.9929 1.11022e-16 37.5 36.9398 -3.33067e-16 22.4999 -42.765
0 7.50013 22.4866 -1.11022e-16 37.5 44.3067 1.11022e-16 -0.000173064 44.3156 -5.55112e-17
3.74923 44.3638 -1.11022e-16 7.50044 0.736588 -1.11022e-16 45 -42.7692 2.22045e-16 15.0001
-6.51713 0 45 7.98959 0 45 -35.5174 0 30 44.2537
1.11022e-16 14.9995 -28.2549 0 37.5 -13.7646 -2.22045e-16 45 15.2384 1.11022e-16
45 36.9405 0 30 29.7284 0 37.5 47.8983 5.55112e-17 -0.000231375
47.9106 0 3.74943 -42.7696 1.11022e-16 22.5 48.0131 0 7.50081 44.229
-2.22045e-16 22.4999 -20.9927 -1.11022e-16 45 -50 -1.11022e-16 0.000116555 22.4873 -1.11022e-16
45 -50 -1.11022e-16 7.50012 51.4805 0 -0.000354952 -35.5173 1.11022e-16 37.5
51.6484 5.55112e-17 3.75115 -50 -2.22045e-16 15.0001 51.6711 0 7.50084 -42.7696
0 30 0.736735 -1.11022e-16 52.5 36.9419 0 37.5 51.4953 -1.11022e-16
11.2492 -6.51706 0 52.5 7.98975 0 52.5 -28.2549 0 45
44.2289 -1.11022e-16 30 51.37 -5.55112e-17 14.9994 29.729 -1.11022e-16 45 -13.7646
0 52.5 51.3052 -2.1684e-19 18.7496 51.3048 -2.60209e-18 18.8318 15.2386 -2.22045e-16
52.5 51.3708 -2.38524e-18 18.7496 -50 1.11022e-16 22.5 54.9985 0 -0.00260162
55.0346 0 1.87535 55.1369 0 3.75138 55.3085 5.55112e-17 7.50038 51.2883
-5.55112e-17 22.4998 55.0461 -5.55112e-17 11.249 -20.9927 0 52.5 56.7456 0
0.0299735 56.7783 -2.77556e-17 1.87544 -42.7696 0 37.5 54.8698 0 14.9993
56.8619 2.77556e-17 3.75216 22.4876 1.11022e-16 52.5 -35.5173 -1.11022e-16 45 54.8229
0 17.1162 51.2808 6.93889e-18 26.2499 55.7413 -6.93889e-18 14.9994 54.8037 0
18.7496 44.2298 -1.11022e-16 37.5 36.9422 -2.22045e-16 45 -50 0 30
58.4645 0 -0.244693 58.5154 0 1.88535 58.9168 0 -0.257294 58.9375
1.38778e-17 1.84572 58.8346 1.38778e-17 4.04008 59.1468 -3.46945e-18 1.82581 59.2027 0
-0.270676 59.0815 0 3.9148 54.7907 0 22.4998 59.2532 0 -0.267831
59.2573 0 1.824 58.2324 -1.38778e-17 11.2624 59.254 0 3.02719 58.004
1.38778e-17 12.6256 59.2576 -3.46945e-18 3.82483 51.283 -6.245e-17 30 57.6498 2.77556e-17
14.9995 -28.2548 1.11022e-16 52.5 59.2774 -2.77556e-17 7.62697 58.8187 2.77556e-17 11.263
58.0011 -1.38778e-17 14.9995 0.736891 0 60 58.3071 0 14.9994 29.7293
1.11022e-16 52.5 59.2786 -2.77556e-17 11.2636 -6.5169 0 60 57.4289 2.77556e-17
18.7498 7.98997 -1.11022e-16 60 58.8533 5.55112e-17 14.9994 54.7868 1.249e-16 26.2499
58.0003 -1.38778e-17 18.7498 58.1668 0 18.7498 59.2769 -2.77556e-17 14.9994 51.2799
6.93889e-18 33.75 -13.7644 0 60 57.3667 0 22.4999 58.7945 0
18.7497 15.2389 1.11022e-16 60 -42.7696 -1.11022e-16 45 59.2786 -2.77556e-17 18.7497
57.9997 2.77556e-17 22.4999 58.1285 -6.245e-17 22.4999 54.7871 0 30 -50
0 37.5 58.7775 2.77556e-17 22.4999 57.3544 0 26.25 44.2301 -1.11022e-16
45 -35.5173 -2.22045e-16 52.5 59.2769 0 22.4998 51.283 -6.93889e-18 37.5
-20.9926 1.11022e-16 60 58.0001 0 26.25 58.1216 0 26.25 22.4878
1.11022e-16 60 36.9426 0 52.5 54.7861 -8.32667e-17 33.75 58.7756 0
26.25 57.3526 -1.66533e-16 30 59.2786 0 26.25 57.9997 -2.08167e-17 30
58.1203 2.08167e-17 30 51.28 0 41.25 58.7742 -5.55112e-17 30 -28.2547
0 60 54.7871 0 37.5 59.2769 0 30 57.3525 0
33.75 29.7295 0 60 58.0002 0 33.75 58.1205 -6.93889e-18 33.75
-50 0 45 0.736925 0 67.5 -42.7695 0 52.5 58.7752
-2.77556e-17 33.75 -6.5169 3.33067e-16 67.5 7.98998 -1.11022e-16 67.5 59.2786 2.77556e-17
33.75 51.2831 -3.46945e-17 45 57.3524 5.55112e-17 37.5 54.7862 1.38778e-17 41.25
44.2303 1.11022e-16 52.5 -13.7644 0 67.5 57.9998 0 37.5 58.1202
4.16334e-17 37.5 15.2389 -1.11022e-16 67.5 58.7741 0 37.5 -35.5171 1.11022e-16
60 59.2769 0 37.5 36.9425 0 60 57.3524 -5.55112e-17 41.25
-20.9926 -1.11022e-16 67.5 51.2801 -6.93889e-18 48.75 54.787 0 45 22.4878
2.22045e-16 67.5 58.0002 6.93889e-18 41.25 58.1204 0 41.25 58.7752 -2.77556e-17
41.25 59.2786 -2.77556e-17 41.25 -50 0 52.5 57.3524 0 45
-28.2547 1.11022e-16 67.5 54.7862 -2.77556e-17 48.75 51.2831 -6.245e-17 52.5 57.9998
6.93889e-18 45 58.1202 -6.93889e-18 45 -42.7695 -1.11022e-16 60 29.7296 0
67.5 58.7741 2.77556e-17 45 59.2769 0 45 44.2304 -2.22045e-16 60
0.737014 0 75 57.3524 0 48.75 -6.51679 -1.11022e-16 75 7.99012
-2.22045e-16 75 58.0002 -6.93889e-18 48.75 58.1204 0 48.75 54.787 -1.38778e-17
52.5 51.2801 0 56.25 -13.7644 0 75 -35.5171 -1.11022e-16 67.5
58.7752 2.77556e-17 48.75 15.239 0 75 59.2786 2.77556e-17 48.75 36.9428
2.22045e-16 67.5 57.3524 0 52.5 -20.9926 1.11022e-16 75 -50 -1.11022e-16
60 57.9998 6.93889e-18 52.5 22.4879 0 75 58.1202 -6.93889e-18 52.5
54.7862 -1.38778e-17 56.25 58.7741 2.77556e-17 52.5 51.2831 -1.38778e-17 60 59.2769
-2.77556e-17 52.5 -42.7695 0 67.5 -28.2547 1.11022e-16 75 57.3524 0
56.25 29.7296 0 75 44.2304 -1.11022e-16 67.5 58.0002 2.08167e-17 56.25
58.1204 6.93889e-18 56.25 54.7871 0 60 58.7752 2.77556e-17 56.25 59.2786
2.77556e-17 56.25 51.2801 0 63.75 0.737004 -1.11022e-16 82.5 -6.51683 0
82.5 7.99007 1.11022e-16 82.5 -35.5171 0 75 57.3524 0 60
57.9998 1.38778e-17 60 58.1202 4.85723e-17 60 36.9426 1.11022e-16 75 -13.7644
1.11022e-16 82.5 15.239 -2.22045e-16 82.5 58.7741 2.77556e-17 60 -50 2.22045e-16
67.5 54.7862 -2.77556e-17 63.75 59.2769 -2.77556e-17 60 51.2831 -6.245e-17 67.5
-20.9926 -1.11022e-16 82.5 22.4879 1.11022e-16 82.5 57.3524 0 63.75 58.0002
6.93889e-18 63.75 58.1204 6.93889e-18 63.75 -42.7695 0 75 58.7752 -2.77556e-17
63.75 54.787 0 67.5 59.2786 2.77556e-17 63.75 44.2304 0 75
-28.2547 -1.11022e-16 82.5 29.7297 0 82.5 51.2801 0 71.25 57.3524
0 67.5 57.9998 1.38778e-17 67.5 58.1202 4.85723e-17 67.5 58.7741 2.77556e-17
67.5 -35.5171 0 82.5 59.2769 -2.77556e-17 67.5 54.7862 -6.93889e-17 71.25
0.737067 -1.11022e-16 90 -50 -1.11022e-16 75 -6.51675 -1.11022e-16 90 7.99018
1.11022e-16 90 36.9429 2.22045e-16 82.5 51.2831 1.17961e-16 75 -13.7643 0
90 15.239 -1.11022e-16 90 57.3524 0 71.25 58.0002 6.93889e-18 71.25
58.1204 6.93889e-18 71.25 58.7752 -2.77556e-17 71.25 -20.9925 1.11022e-16 90 59.2786
2.77556e-17 71.25 22.488 1.11022e-16 90 54.7871 0 75 -42.7695 0
82.5 44.2305 0 82.5 51.2801 -6.93889e-18 78.75 -28.2547 -2.22045e-16 90
57.3524 0 75 29.7297 -1.11022e-16 90 57.9998 1.38778e-17 75 58.1202
4.85723e-17 75 58.7741 2.77556e-17 75 59.2769 -2.77556e-17 75 54.7862 0
78.75 -50 0 82.5 -35.5171 1.11022e-16 90 51.2831 -1.80411e-16 82.5
36.9427 1.11022e-16 90 57.3524 0 78.75 0.737038 0 97.5 -6.5168
0 97.5 58.0002 6.93889e-18 78.75 7.9901 -1.11022e-16 97.5 58.1204 6.93889e-18
78.75 58.7752 -2.77556e-17 78.75 -13.7644 2.22045e-16 97.5 59.2786 2.77556e-17 78.75
15.239 0 97.5 54.787 -1.38778e-17 82.5 -42.7695 -1.11022e-16 90 -20.9926
-1.11022e-16 97.5 22.4879 0 97.5 44.2304 1.11022e-16 90 51.2801 0
86.25 57.3524 0 82.5 57.9998 -6.93889e-18 82.5 58.1202 4.85723e-17 82.5
58.7741 2.77556e-17 82.5 -28.2547 0 97.5 59.2769 -2.77556e-17 82.5 29.7297
1.11022e-16 97.5 54.7862 1.38778e-17 86.25 -50 0 90 57.3524 0
86.25 51.2831 -6.93889e-18 90 -35.5171 -1.11022e-16 97.5 58.0002 1.38778e-17 86.25
58.1204 6.93889e-18 86.25 36.9429 2.22045e-16 97.5 58.7752 -2.77556e-17 86.25 59.2786
2.77556e-17 86.25 0.73709 -1.11022e-16 105 -6.51673 0 105 7.9902 -1.11022e-16
105 54.7871 0 90 -13.7643 0 105 15.239 1.11022e-16 105
-42.7695 -1.11022e-16 97.5 57.3524 0 90 51.2801 0 93.75 44.2305
1.11022e-16 97.5 57.9998 1.38778e-17 90 -20.9925 2.22045e-16 105 58.1202 4.85723e-17
90 22.4881 0 105 58.7741 2.77556e-17 90 59.2769 -2.77556e-17 90
54.7862 0 93.75 -28.2547 0 105 29.7297 0 105 -50
-1.11022e-16 97.5 57.3524 0 93.75 51.2831 -1.04083e-16 97.5 58.0002 6.93889e-18
93.75 58.1204 6.93889e-18 93.75 58.7752 -2.77556e-17 93.75 -35.5171 0 105
59.2786 2.77556e-17 93.75 36.9427 -1.11022e-16 105 54.787 1.38778e-17 97.5 0.737054
-1.11022e-16 112.5 -6.51679 2.22045e-16 112.5 7.99012 -1.11022e-16 112.5 57.3524 0
97.5 -13.7644 0 112.5 -42.7695 0 105 57.9998 1.38778e-17 97.5
51.2801 -6.93889e-18 101.25 58.1202 4.85723e-17 97.5 15.239 -1.11022e-16 112.5 58.7741
2.77556e-17 97.5 44.2305 1.11022e-16 105 59.2769 -2.77556e-17 97.5 -20.9926 1.11022e-16
112.5 22.4879 -1.11022e-16 112.5 54.7862 0 101.25 -28.2547 0 112.5
-50 2.22045e-16 105 29.7297 0 112.5 57.3524 0 101.25 58.0002
1.38778e-17 101.25 58.1204 6.93889e-18 101.25 51.2831 2.08167e-17 105 58.7752 -2.77556e-17
101.25 59.2786 2.77556e-17 101.25 -35.5171 -2.22045e-16 112.5 36.9429 1.11022e-16 112.5
54.7871 0 105 57.3524 0 105 57.9998 1.38778e-17 105 0.737101
-1.11022e-16 120 58.1202 4.85723e-17 105 -6.51672 0 120 51.2801 6.93889e-18
108.75 7.99022 -1.11022e-16 120 58.7741 2.77556e-17 105 -42.7695 0 112.5
59.2769 -2.77556e-17 105 -13.7643 -1.11022e-16 120 44.2305 0 112.5 15.239
-1.11022e-16 120 54.7862 -2.77556e-17 108.75 -20.9925 0 120 22.4881 0
120 57.3524 0 108.75 -50 0 112.5 58.0002 6.93889e-18 108.75
[...]
POINT_DATA 3098
FIELD attributes 2
p 1 3098 float
-0.000782391 -0.00397591 0.0531882 0.000794271 0.0519822 0.0475074 -0.00618258 0.0232392 0.00567512 0.0533428 0.022111
0.0517376 0.02701 0.0240002 -0.0113009 0.0285409 0.0549853 0.0139551 0.0011559 -0.000374747 0.0609049
0.00192839 0.0257541 -0.00288874 0.0305641 0.00236638 -0.0146423 0.0542972 0.0351443 -0.00301873 0.0774819
-0.00340942 -0.00356631 -0.00353151 0.00100658 0.0268656 -0.00486764 0.0445709 -0.00433103 -0.0172636 -0.00327425
0.0520878 -0.00542567 0.0520042 -0.00817253 -0.00584654 -0.00501167 0.0806083 -0.00508703 -0.00554968 0.0261524
0.0688399 -0.00578346 -0.00670293 -0.00571873 -0.00324356 -0.0120017 -0.017032 -0.00613713 -0.0166411 0.048559
-0.00820496 0.119477 0.0277686 0.071897 -0.00692896 0.0266982 -0.00696472 -0.00742851 -0.00586331 0.081222
-0.00646715 -0.00751611 -0.00854555 -0.0178907 -0.0114588 0.166156 0.020102 -0.00325961 0.0419646 -0.0260734
-0.00788494 -0.0158282 -0.0101747 0.0473714 0.178541 -0.00652417 -0.00647731 0.0279232 0.111491 -0.00691234
-0.00755498 -0.0148584 0.243631 -0.00751513 -0.00799535 -0.00816362 -0.0237098 0.0820266 -0.0129979 -0.00789197
-0.0369994 -0.0372656 -0.00887384 -0.0369024 -0.00357817 0.135552 -0.0489395 -0.0868913 0.125375 -0.0489242
0.290486 -0.0081736 0.134213 -0.0656678 -0.00685135 0.091912 -0.179393 -0.0102438 -0.00815856 0.0218668
-0.0403799 0.0947034 -0.0316767 -0.0183826 -0.0160647 -0.00833531 0.237603 -0.0780202 0.298225 -0.037234
-0.23395 -0.0389745 0.317492 -0.24123 -0.0520187 0.318212 -0.042603 0.329865 -0.174064 0.251308
-0.253773 -0.0309082 0.100458 -0.00836876 0.182541 0.280934 0.0841662 -0.00739156 0.0672882 -0.012584
0.297421 -0.0072813 -0.0243714 -0.00772668 0.0953167 -0.0406926 -0.021656 -0.0210421 0.094363 -0.0243002
-0.00746351 -0.0490892 -0.0218704 -0.00830819 -0.00813061 -0.0232907 -0.0470076 -0.0461525 -0.032339 -0.00757556
-0.0449897 -0.0394587 -0.0191301 -0.00835006 -0.044203 -0.0232921 -0.00760309 -0.0382968 -0.0377344 -0.00920989
-0.0151594 -0.0264864 -0.0364165 -0.0326692 -0.0354092 -0.0324164 -0.0320937 -0.0238611 -0.0313391 -0.00769443
-0.0247984 -0.0305587 -0.0278228 -0.0107297 -0.0285689 -0.0285471 -0.00843964 -0.00689032 -0.00841972 -0.0288076
-0.00674271 -0.00711136 -0.0285522 -0.0234071 -0.025564 -0.0250119 -0.017568 -0.00679215 -0.0261693 -0.0261972
-0.00744646 -0.0267788 -0.00763452 -0.0267424 -0.0124321 -0.0252675 -0.00682149 -0.0224004 -0.0243822 -0.00794685
-0.0255891 -0.0255972 -0.0262973 -0.0263957 -0.00874677 -0.0242501 -0.00680896 -0.0229091 -0.0201238 -0.0244016
-0.0243914 -0.00776679 -0.00876209 -0.0250898 -0.0252151 -0.013998 -0.00624533 -0.0226159 -0.006081 -0.00640546
-0.0226449 -0.0226308 -0.0204739 -0.0176383 -0.00605359 -0.00666787 -0.023367 -0.00660338 -0.0235752 -0.00961741
-0.0199577 -0.00600411 -0.00811514 -0.0198122 -0.00687735 -0.0197669 -0.0176715 -0.0203467 -0.0150646 -0.0204934
-0.00677327 -0.00591389 -0.017129 -0.00729577 -0.0105297 -0.0169531 -0.0169056 -0.015047 -0.0173769 -0.0174739
-0.0128917 -0.00550799 -0.00533857 -0.00562437 -0.00571102 -0.0145531 -0.0144001 -0.0143643 -0.00762827 -0.00525209
-0.00575068 -0.0147931 -0.00709691 -0.012859 -0.0149019 -0.0112151 -0.00512905 -0.00591757 -0.0124562 -0.0123421
-0.0123256 -0.00576837 -0.0127362 -0.0111361 -0.0128644 -0.00820798 -0.00498005 -0.00616559 -0.00990026 -0.0107482
-0.0106303 -0.010615 -0.0109571 -0.00472634 -0.0110675 -0.0098555 -0.00476559 -0.0060472 -0.00457242 -0.00488218
-0.00626127 -0.00886049 -0.00444149 -0.00499352 -0.00956692 -0.00949475 -0.00949245 -0.00979979 -0.00427693 -0.00990536
-0.00512396 -0.0088448 -0.00473719 -0.00667262 -0.00812929 -0.00408639 -0.00862343 -0.00531294 -0.00857991 -0.00858132
-0.00883192 -0.00891798 -0.00816037 -0.00498333 -0.00380195 -0.00753495 -0.00533004 -0.0080468 -0.00407836 -0.00387199
-0.00807147 -0.0042185 -0.00808571 -0.00831611 -0.0037215 -0.0083955 -0.00434401 -0.0076266 -0.00378048 -0.00352235
-0.00447204 -0.00572061 -0.00711671 -0.00756569 -0.00761647 -0.00763379 -0.00782338 -0.003294 -0.00788683 -0.00466304
-0.00723086 -0.00400179 -0.00725536 -0.0067284 -0.0029887 -0.00735735 -0.00738211 -0.00470528 -0.00754905 -0.0076021
-0.0034766 -0.00328516 -0.00361114 -0.00691515 -0.00312739 -0.00372424 -0.00294217 -0.00698622 -0.00651111 -0.00506511
-0.00710592 -0.00291241 -0.00713261 -0.00383673 -0.00726973 -0.00731174 -0.00669902 -0.00267767 -0.0040147 -0.00314041
-0.00683309 -0.0061941 -0.00698084 -0.00701177 -0.00712998 -0.00237048 -0.00716326 -0.00410351 -0.00645515 -0.00287675
-0.00268609 -0.00300081 -0.00660829 -0.0025224 -0.00230128 -0.00675926 -0.00596642 -0.00678902 -0.00309489 -0.00688063
-0.00446539 -0.0069013 -0.00232763 -0.00319084 -0.00620372 -0.00211955 -0.00246733 -0.00334671 -0.00639928 -0.00656346
-0.00659464 -0.00557781 -0.00667156 -0.00668603 -0.00182811 -0.00350152 -0.00589052 -0.00610751 -0.00627329 -0.00228933
-0.00630322 -0.00210552 -0.00531849 -0.00240381 -0.00636065 -0.00174946 -0.0063665 -0.00194102 -0.00386739 -0.00249248
-0.00560663 -0.00175359 -0.00258916 -0.00586486 -0.00188926 -0.0060404 -0.00154776 -0.006072 -0.00612106 -0.00273589
-0.00492295 -0.00612434 -0.00527543 -0.00125595 -0.00292061 -0.0055464 -0.00571766 -0.00574823 -0.0057829 -0.00463685
-0.00578054 -0.00116676 -0.0017394 -0.00156077 -0.00185035 -0.00329763 -0.00139423 -0.00193668 -0.00495493 -0.00119697
-0.00203566 -0.00526025 -0.00543978 -0.00547235 -0.00128926 -0.00550625 -0.00550644 -0.00426457 -0.000984891 -0.00217287
-0.00465211 -0.000702393 -0.00238064 -0.00497437 -0.00515032 -0.00518152 -0.00520569 -0.00520343 -0.0040742 -0.000604954
-0.00278621 -0.00122691 -0.00105198 -0.00133308 -0.00443691 -0.000883672 -0.00141825 -0.00477088 -0.000684281 -0.00493791
-0.00496631 -0.00152082 -0.000707015 -0.00497718 -0.00496817 -0.00379836 -0.000472495 -0.00165493 -0.00422795 -0.000190013
-0.00456644 -0.00187606 -0.00472736 -0.00475373 -0.00475246 -0.00473831 -0.00357528 -8.87509e-05 -0.00230191 -0.00396383
-0.000746837 -0.000577659 -0.000855501 -0.000414389 -0.00431296 -0.000944236 -0.00446698 -0.00449063 -0.00447923 -0.000184312
-0.00445983 -0.000219108 -0.00105218 -0.00319635 -7.66615e-06 -0.00117879 -0.00363237 -0.00398893 0.000278133 -0.00413908
-0.00416265 -0.00139836 -0.00415035 -0.0041337 0.00150902 -0.00480645 -0.00294444 0.00302213 0.00767893 0.00168994
0.00625267 -0.00368531 0.00038956 0.00259042 0.00708918 0.00487265 -0.00335423 -0.00181317 0.00596993 0.00214989
0.00193474 -0.00212678 0.00194513 -0.00204599 0.00201474 0.0044199 0.00198819 -0.000306443 0.00627869 0.00624942
-0.00372624 -0.000143386 3.28299e-05 -0.000417459 0.0021018 0.00558705 -0.00387099 0.00557776 -0.00389249 1.70478e-05
-0.00387193 -0.000507951 0.00377388 0.00375762 -0.00135268 -0.00385063 0.00014591 0.00030587 0.00181966 -0.000766665
0.0020124 0.00201 0.00161441 -0.00263694 0.000209909 -0.00122526 0.00469304 -0.00222066 -0.000618643 0.000293153
0.000296824 0.00451463 0.00316314 -0.00209901 0.00169887 0.000130906 -0.00279762 -0.00105277 -0.00104833 0.000423419
0.00132831 -0.00308241 0.0034904 0.00182591 -0.000740827 0.00368668 -0.00267411 -0.00193651 -0.0019323 -0.00304296
0.000423228 -0.00343902 0.00278903 -0.00356588 -0.0035847 0.00171838 -0.00355826 0.000702766 -0.000755846 -0.0029319
-0.00251089 -0.0025067 -0.00353561 0.00155603 0.000490844 -0.000949811 0.0012395 -0.00302314 0.000512022 0.00279519
-0.00158381 -0.00240909 0.00312428 -0.00278561 -0.00278184 -0.00294092 -0.00054874 0.00251049 -0.00289296 -0.0021399
0.00162544 0.000817797 -0.00134131 -0.00281775 -0.0028335 -0.00283069 -0.00136669 -0.00283593 0.000583466 -0.00242595
0.00140083 0.000880811 -0.00274725 0.00112806 -0.00187487 -0.00318089 0.00202767 -0.000362128 -0.00330205 -0.00276178
-0.00331897 -0.00275975 0.00247146 9.53358e-05 -0.00328467 -0.00270589 0.000248091 -1.62054e-05 -0.00252886 -0.00325705
0.00217506 -0.00217551 -0.00109634 0.00040383 0.000749842 -0.00261604 -0.000109131 0.00150094 -0.00209882 -0.00265259
-0.00265106 -0.0016163 0.000593897 -0.00258352 -0.00251944 0.0006533 -0.00230983 -0.000215473 -0.00251751 -0.000154805
-0.00255176 -0.00191835 -0.00254176 -0.00254052 0.000807924 -0.00234939 -0.00246321 0.00135882 -0.00249189 -0.000330797
0.00112814 -0.000825624 0.00117186 -0.00292007 0.00153694 -0.0020817 -0.00303736 -0.00305407 0.00181689 -0.00244522
-0.00302212 -0.00132217 -0.00245907 -0.00245806 -0.00232609 -0.00299828 0.00170179 -0.00238743 0.00108276 -0.00242579
-0.000536102 0.00127961 -0.00215111 -0.00192957 -0.00163264 0.000676057 -0.00227833 -0.00238627 -0.00240116 -0.00240036
-0.00233069 -0.00216754 5.22474e-05 -0.00182157 0.00120001 -0.00235229 -0.00236963 -0.000951315 -0.00050391 -0.00223817
0.00139585 0.00122814 0.00117944 -0.00271228 -0.00233647 -0.00229942 -0.0023484 -0.00234769 -0.00192948 -0.00214719
0.00131217 -0.00281712 -0.00283152 0.00144848 -0.000942692 -0.00279344 -0.00276635 -0.00231969 0.00136709 0.000456457
0.00059895 0.000347795 0.00114242 -0.0022277 -0.00198623 0.00108276 -0.00125353 0.000750414 -0.00213088 -0.00226528
-0.00171167 0.000254199 -0.00229809 -0.00229738 -0.00230845 0.000645675 0.000939605 -0.00147549 -0.00229168 0.00015187
-0.0020002 0.000160911 -0.00220475 -0.00215691 -0.00213346 -0.00222288 -0.000302149 -0.00226997 -0.00226928 0.00115104
-0.0022908 -0.00163446 0.0014317 0.00127037 -0.00249322 4.18738e-05 0.00116398 -0.00258711 -0.00200823 -0.00259973
0.00117328 -0.00255797 -0.000691521 -0.00227565 0.00121438 -0.00253012 -0.00216974 -0.00212767 0.00112774 -0.00173958
0.00142403 -0.00219884 -0.000990706 0.000905051 -0.00225613 -0.000156663 -0.0022555 -0.00155274 -0.00202857 -0.00225919
0.000570509 -0.0018028 -0.00214789 -0.00123103 -0.00224473 -0.00210484 0.000192842 -0.00195803 0.00154545 -0.00219432
-0.00203982 -0.000574324 -0.00222596 -0.00222536 -0.00019544 -0.001428 -0.00185082 -0.0022866 0.00147279 -0.00221301
0.00131283 0.00117552 -0.00237177 -0.00238214 0.00111058 -0.00209083 -0.00215109 -0.00233383 -0.000541215 -0.00230213
0.00109125 -0.0021974 -0.0015676 0.000990043 -0.00203204 -0.00217228 0.00149266 -0.00189584 0.000780455 -0.000818538
0.000917745 0.000795555 0.000675593 -0.00217694 -0.0021763 -0.00129356 0.00106009 -0.00216493 0.000527325 0.000584727
-0.00209591 -0.00166081 -0.00213313 -0.00105186 -0.00214926 0.00123904 0.000226386 -0.0020258 -0.00172784 -0.00192503
0.000482863 -0.00212439 -9.89204e-05 -0.00126333 -0.00173504 -0.00212869 -0.00212806 -0.00204874 0.00150167 0.00143743
0.0013366 -0.00212688 -0.00213678 0.00117553 -0.00208458 0.000375802 -0.00211562 0.00106211 -0.00209023 -0.00208743
-0.000404146 -0.00206158 -0.00193864 0.00100919 -0.00203482 -0.00142717 -0.00210244 0.000905088 -0.00180234 -0.0020772
-0.000666372 0.00167671 0.000736934 -0.00113896 0.000179852 -0.00208519 -0.00208466 -0.00153946 0.000518927 -0.00204549
-0.00194928 -0.000896056 -0.00204048 -0.00205142 -0.00202904 -0.00184692 0.000262799 -0.00154242 0.00177382 -0.00203998
-0.00204203 -0.00162835 -0.00111238 -2.43074e-05 -0.000223869 -0.00185922 0.00153846 0.00135363 -0.00192936 -0.00193729
0.00117124 -0.00196317 -0.00202491 -0.00202444 -0.00200275 -0.00188381 -0.00187169 0.00105015 -0.000296117 -0.00185124
-0.00199785 -0.00201186 0.000984511 -0.00129328 -0.00197422 -0.00171621 0.000867384 -0.000548596 0.00172174 0.000710231
-0.00196212 -0.00198925 -0.000941283 0.00107219 0.00120704 -0.00142965 0.000970278 -0.00189355 -0.0019603 0.000527267
-0.000784883 0.0013308 -0.00197464 -0.00178095 0.000880631 -0.00194609 -0.0019456 -0.00195976 0.000299494 -0.0019633
-0.00137514 0.00146449 -0.00190136 -0.00153827 0.000777415 -0.00100653 3.14016e-05 -0.00167929 -0.00191678 -0.0018889
-0.00174058 -0.00193997 -0.00191118 -0.00174669 -0.00181713 0.00155776 0.00135719 0.0016203 -0.00168942 0.00116396
-0.000218742 -0.00165541 0.00067127 0.00105294 -0.00119465 -0.00193074 -0.00164261 -0.00193366 0.00099229 -0.00187237
-0.00187188 -0.0018865 0.000871122 -0.000456684 0.0018064 -0.00191986 0.000719446 -0.00183146 -0.000785174 -0.00184559
-0.00134997 0.000485519 -0.00191221 -0.000695096 0.000554778 -0.00172512 -0.00183583 -0.00182104 0.000345539 -0.00117289
-0.00185902 -0.0018936 -0.00148335 -0.000927342 -0.00180729 -0.00180688 0.00188413 -0.00180987 -0.00188103 -0.00190317
8.81338e-05 -0.00146909 8.24684e-05 -0.00177893 -0.00152542 -0.00153077 -0.00188597 0.0015733 0.00136786 -0.00175096
-0.00147373 0.00117482 -0.000160143 -0.00112312 -0.00144036 -0.00160198 0.00105805 -0.00177739 0.000997852 -0.00174236
-0.00182773 0.000883302 -0.00178446 -0.000393192 -0.00189711 0.0018504 -0.00181825 -0.00187945 -0.00128762 0.000741219
-0.000562389 -0.00173095 -0.00173059 -0.00175639 -0.00169372 0.00132627 0.000579928 -0.000631371 -0.00184396 0.00143308
0.00123402 0.0015238 -0.00166134 0.00114626 0.000374739 -0.000983304 -0.00144013 -0.00186064 -0.00188525 -0.00170759
-0.00087707 0.00160768 -0.00165226 -0.00175542 -0.0017617 0.000131251 -0.00172988 -0.00185619 0.00104321 -0.00127883
-0.00133041 -0.00133523 0.00161788 0.00141021 -0.00127969 -0.00157887 0.0012176 -0.000114134 -0.00164012 -0.00169047
-0.00163975 -0.00124924 -0.00108741 -0.00178593 0.00108848 0.00171787 0.000936789 0.00101751 -0.0018867 -0.00181668
-0.00186038 0.000903721 -0.000353969 -0.00158002 -0.001262 0.000771354 -0.00181488 -0.00168221 -0.00161659 -0.000442364
-0.00170059 0.0018998 -0.00166678 -0.00157033 0.000613353 -0.000598013 0.000755014 -0.00172216 0.000400871 -0.00188386
-0.00186398 -0.00159998 -0.0014287 -0.000827518 -0.00155743 -0.00155706 -0.00184138 -0.000850072 -0.00175689 0.000158705
0.00200229 -0.0011111 0.000363784 -0.00175743 -0.00115425 -0.0011577 -0.00150605 0.00167224 0.00145558 -0.00109934
-0.00158888 -7.88352e-05 -0.00163951 -0.00107096 0.00126116 -0.00153095 -0.00106729 0.00112689 -0.00158033 -0.00188937
-0.00186044 -0.00149846 0.00104911 -0.00182335 -0.00166476 -0.000325547 0.000934409 -0.0018077 -0.00151213 -0.00126148
0.00198829 -0.00148849 -0.00148819 0.000803567 -0.00170782 -0.00028531 -0.000588404 -0.0016962 0.000651454 -0.00189087
-0.00188207 0.00154172 0.00159291 -0.00184161 0.0014729 -0.00144497 -0.0015574 0.000429936 -0.00142826 -0.000692839
-0.00146782 -0.000852636 0.00165618 -0.00149313 -0.00178949 0.00138925 -0.00175016 0.000173254 -0.00159922 -0.00142259
-0.000960771 0.00174731 -0.000995956 0.00128865 -0.000997751 -0.00161914 -0.0014529 -0.00107781 -6.72845e-05 0.00170779
-0.000936204 -0.00190927 0.00148389 -0.00141484 -0.00187567 -0.00141459 0.00130718 -0.000902734 -0.00164125 0.00116376
-0.00186335 -0.00181201 0.00186066 0.00109036 -0.000316735 0.00117978 0.000973843 -0.00147102 -0.0012814 -0.00174906
-0.00136065 -0.00168231 0.000845731 -0.00140016 -0.00143293 -0.0015225 -0.00017145 -0.000598598 -0.00190749 0.00205882
0.000689845 -0.00135475 -0.00185788 -0.00193281 0.000999299 -0.0014869 -0.00138939 0.000460821 -0.00157573 -0.00175792
-0.00184208 -0.000537174 -0.00088335 -0.00134641 -0.00134613 0.000190226 0.00217801 -0.000794455 -0.00167377 -0.00141059
-0.00162885 -0.00189656 -0.000823931 -0.000824251 -0.00111479 -0.0019668 0.000603342 -6.01451e-05 -0.000758575 -0.00182338
-0.00137386 -0.00131785 -0.00144214 -0.000722268 -0.00133115 -0.00192522 -0.000317925 -0.00131233 -0.00168685 -0.00132442
-0.00149854 -0.00180742 -0.00132067 0.00216743 -0.00196392 -0.0018851 -0.00130461 -0.00130435 -0.000615876 1.1425e-05
-0.0019978 -0.00157105 -0.00176942 -0.00154828 -0.00135613 -0.00190753 -0.000914289 -0.00138365 0.00172066 -0.000378839
-0.00131114 0.0017589 0.00168104 -0.00128675 -0.00127195 -0.00163056 0.0018324 0.0016178 -0.00141923 -0.00194941
-0.00175256 -0.00203215 -0.000631395 -0.00184844 -0.00126919 -0.00115647 -0.000656465 -0.000656176 0.00194197 -0.00200189
-0.00127383 -0.000591922 0.00180634 0.00152427 -0.000557963 0.00151412 -0.00170287 -0.001495 -0.00126544 -0.00126529
0.00129946 -0.00188974 -0.00136923 0.00206782 -0.00129994 0.00141486 -0.00203234 -0.00133653 -0.00193898 -0.00157607
0.000993952 -0.00207593 -0.0012635 -0.00178791 -0.0012528 0.000103088 -0.00120145 -0.00136752 -0.00160817 0.00225701
-0.00198994 0.00122976 -0.00164498 -0.00120037 0.00052469 -0.00141178 -0.00124293 -0.000249887 -0.00201728 -0.00210313
-0.00190438 -0.00181889 -0.00119849 -0.00119839 -0.000487705 -0.00125129 -0.00150497 -0.00208901 0.00236653 -0.00172076
-0.000503758 -0.000501805 -0.00128995 -6.63975e-05 -0.000433069 0.000842213 -0.000395854 -0.00122871 -0.00133041 -0.00196334
-0.00119131 -0.00158389 -0.00110999 -0.00210141 -0.00200127 -0.00136211 -0.00216715 -0.00183844 -0.00110874 0.00235724
-0.000716743 -0.00118525 0.000239058 -0.00166533 -0.00205735 -0.00142265 -0.00110649 -0.00110637 -0.00121277 -0.00124039
-0.00209063 -0.00196155 -0.000134296 -0.00218793 -0.00151268 -0.00128515 0.00190094 -0.00117394 0.00197047 0.00186561
-0.00176139 -0.00216136 -0.00110037 -0.00133405 0.00206256 -0.000357031 -0.00132976 0.00183349 -0.00102674 -0.000366502
-0.000363211 -0.00029245 -0.0016008 0.00173252 -0.00025463 0.00161417 0.00217001 0.00153033 -0.00102489 0.00175237
-0.00137091 -0.0020716 -0.00109615 -0.00217856 0.00146142 0.00136766 -0.00189374 -0.00223343 0.00119924 -0.00116042
-0.00102183 -0.0010217 0.00229352 -0.00119429 -0.00143449 0.00163894 -0.00170212 0.000967127 -0.00123077 -0.00184016
0.00034665 0.000700752 -0.00108995 -0.00128193 -0.00216567 -0.00152467 -0.00201901 0.00246388 -0.00101212 -0.00225289
0.000411196 0.00145919 -0.000953938 -0.00181095 1.40708e-05 -0.0013386 5.82236e-05 -0.000952771 -0.00100537 -0.00163629
-0.000198049 -0.00138354 -0.000203321 -0.000199091 -0.000299275 0.00256162 -0.00108195 -0.00214576 -0.00113932 -0.000126164
-0.000950587 -0.000950488 -0.00223043 0.00167129 -8.68887e-05 0.00107111 0.00157332 -0.00221239 -0.00194545 0.00148943
-0.00118495 0.00142114 -0.00144722 -0.000685771 0.00132381 -0.00122039 -0.00174263 -0.000999377 0.00114434 -0.000942965
-0.00129361 -0.00105539 0.000887185 0.00255821 -0.000869532 -0.00155672 -0.00221629 -0.00208239 0.000520102 0.000595867
-0.00135189 -0.00186432 -0.000937307 -0.00144759 -0.000869728 0.000270492 -0.00106982 -0.00099201 0.000164829 -0.00140195
-0.00240371 -0.00166759 -0.00113146 -0.000105608 -0.000869362 -0.000869311 -0.00173767 0.00210905 -0.0011765 0.00219974
0.00205114 -4.39211e-05 -0.00218676 -0.00199689 -0.000929863 -0.000501615 -4.63546e-05 -4.1896e-05 0.00229576 -0.00123082
0.00201805 2.8312e-05 -0.00148101 6.4343e-05 0.00153435 -0.00179146 0.00147199 -0.00202399 -0.000868276 0.00138546
0.0024021 -0.000902828 0.00133245 -0.0013126 0.00194805 -0.000777412 0.00120713 0.00104531 -0.00158864 -0.000866594
-0.00137381 -0.00130134 -0.000777407 0.00252147 -0.00211748 -0.00226988 0.000752001 -0.000990265 0.00184481 -0.000921624
-0.0019119 -0.00106408 -0.00244557 0.000606379 0.000453811 -0.0011325 -0.00077665 -0.000776586 -0.00167789 -0.00144022
-0.00170384 6.56569e-05 -0.00118325 0.00267423 -0.00252475 -0.000861957 0.00166703 0.000285965 -0.00125548 -0.000321672
-0.00198108 -0.00201894 -0.00077443 -0.00152013 9.12527e-05 -0.00183955 -0.00133294 -0.000758471 9.67881e-05 0.000102469
-0.00264845 -0.000690387 0.00276108 0.000175545 0.000213632 -0.00224255 -0.000772622 0.00129691 -0.000689311 -0.000919938
-0.0016233 -0.00115337 -0.000991982 -0.000856106 -0.00141112 -0.00106765 -0.00274774 -0.00114371 -0.00235407 -0.000687273
-0.000687187 -0.00192991 -0.00249881 -0.00157997 -0.0012062 -0.00147764 0.00276016 -0.000771889 -0.00174757 0.00073597
-0.00193479 -0.00127559 -0.000680424 -0.00271184 -0.00277091 -0.00155936 0.00039449 -0.000612799 -0.00136187 -0.00223464
-0.00185111 -0.000675374 -0.000851675 -0.000929278 -0.000612811 -0.000994929 -0.000769885 0.000213631 -0.00283403 0.00232665
0.00242659 0.000224268 0.00023094 -0.00108794 0.0022437 -0.00165899 -0.00280786 -0.00143936 0.000305114 -0.00246178
0.00252602 0.000343317 -0.00116274 0.00217412 -0.000612393 -0.000612346 0.000873128 0.000675091 -0.00218946 -0.000674465
0.00262799 -0.00123118 0.000442754 -0.00288804 0.00210261 -0.00151259 -0.00271306 -0.00176298 -0.00274986 -0.000606452