/*--------------------------------*- C++ -*----------------------------------*\
  =========                 |
  \\      /  F ield         | OpenFOAM: The Open Source CFD Toolbox
   \\    /   O peration     | Website:  https://openfoam.org
    \\  /    A nd           | Version:  10
     \\/     M anipulation  |
\*---------------------------------------------------------------------------*/
FoamFile
{
    format      ascii;
    class       volScalarField;
    location    "2000";
    object      k;
}
// * * * * * * * * * * * * * * * * * * * * * * * * * * * * * * * * * * * * * //

dimensions      [0 2 -2 0 0 0 0];

internalField   nonuniform List<scalar> 
55398
(
0.234442
0.212281
0.196194
0.207855
0.213687
0.451943
0.228829
0.208517
0.19185
0.177865
0.165951
0.158651
0.198484
0.492971
1.899
3.94634
5.70462
6.958
7.20695
6.88365
0.219382
0.20179
0.186922
0.174403
0.164551
0.160116
0.182053
0.272453
3.84075
7.96486
10.9754
11.6425
10.9427
8.27201
6.21437
0.219408
0.201947
0.187121
0.174621
0.164714
0.159442
0.170328
0.2057
0.33249
0.567514
0.692085
0.446752
0.295026
0.298798
0.320315
0.323022
0.323138
0.318137
0.219548
0.202178
0.187391
0.174874
0.164739
0.158358
0.161174
0.188707
0.231491
0.25556
0.272102
0.249233
0.221884
0.184374
0.169593
0.158866
0.150611
0.141084
0.133842
0.127159
0.219689
0.202415
0.187673
0.17513
0.164777
0.157312
0.155778
0.167125
0.177706
0.182102
0.185033
0.173866
0.16408
0.154553
0.144415
0.136493
0.129915
0.122886
0.117102
0.111896
0.219821
0.202639
0.187945
0.175326
0.164885
0.156645
0.152191
0.154936
0.15834
0.159289
0.156072
0.149842
0.143079
0.135795
0.128914
0.122887
0.11763
0.112164
0.107458
0.103031
0.219943
0.202845
0.188199
0.17565
0.16499
0.156355
0.150385
0.148275
0.147261
0.145434
0.141529
0.13648
0.131029
0.125168
0.119767
0.114741
0.110221
0.105622
0.101528
0.0976732
0.219926
0.202939
0.188397
0.175935
0.16524
0.156375
0.149413
0.144864
0.141406
0.137905
0.133585
0.128867
0.123821
0.118722
0.113909
0.109509
0.105412
0.101358
0.0976186
0.0941624
0.220171
0.203214
0.188658
0.176132
0.165414
0.156393
0.148958
0.143206
0.138438
0.133912
0.129197
0.124428
0.119683
0.115009
0.110609
0.106491
0.102641
0.0988779
0.0953822
0.0920639
0.220266
0.203379
0.188866
0.176355
0.165608
0.156479
0.148729
0.142329
0.136829
0.13173
0.126744
0.121887
0.117244
0.112761
0.108542
0.10455
0.100856
0.0972604
0.093898
0.0906774
0.220353
0.203527
0.189055
0.176564
0.165804
0.156576
0.148674
0.141919
0.136007
0.130553
0.125353
0.120432
0.115805
0.111471
0.107289
0.10341
0.0997734
0.0962856
0.0930114
0.089855
0.220433
0.203665
0.189231
0.176762
0.166001
0.156717
0.148702
0.141737
0.135584
0.129897
0.124557
0.119573
0.114927
0.110589
0.106513
0.102686
0.0990881
0.0956582
0.0924327
0.0893135
0.220508
0.203795
0.189397
0.176951
0.166239
0.156865
0.148776
0.141686
0.135366
0.129557
0.124095
0.11903
0.114395
0.110063
0.106011
0.102225
0.0986561
0.09527
0.0920835
0.0889954
0.220578
0.203917
0.189553
0.177129
0.166375
0.157031
0.148887
0.141733
0.135304
0.129405
0.123873
0.118802
0.114118
0.109791
0.105756
0.10199
0.0984371
0.0950761
0.0919117
0.088842
0.220645
0.204033
0.189702
0.177298
0.166523
0.157192
0.149022
0.141819
0.135334
0.129373
0.123839
0.11874
0.114043
0.109713
0.105695
0.101925
0.0983793
0.0950299
0.0918788
0.0888229
0.220708
0.204144
0.189843
0.177458
0.166709
0.157353
0.149174
0.14195
0.135443
0.129461
0.12391
0.1188
0.114094
0.109758
0.105732
0.101967
0.0984216
0.0950752
0.0919265
0.0888746
0.220752
0.204217
0.189932
0.177555
0.166799
0.157436
0.149243
0.142015
0.135491
0.129507
0.123946
0.118839
0.11413
0.109791
0.105767
0.101994
0.0984422
0.0950904
0.0919372
0.0888843
0.234497
0.2119
0.192916
0.179434
0.205228
0.29432
0.22882
0.20851
0.19187
0.177709
0.165647
0.157848
0.185751
0.404936
3.25047
4.56106
6.37514
7.29234
6.59708
7.33759
0.219354
0.201765
0.186945
0.174385
0.16451
0.159934
0.180083
0.26876
2.60126
6.0107
9.26088
10.896
6.7338
7.53057
5.16263
0.219419
0.201949
0.187124
0.174621
0.164733
0.159347
0.169164
0.200609
0.312888
0.408234
1.20295
0.327381
0.281614
0.271919
0.291594
0.325901
0.354373
0.354186
0.219561
0.202182
0.187394
0.174877
0.164736
0.158302
0.160555
0.185405
0.223071
0.24397
0.252057
0.242397
0.199095
0.182876
0.168116
0.157183
0.148867
0.139854
0.132602
0.125925
0.219702
0.202419
0.187677
0.175134
0.164777
0.157279
0.155554
0.165266
0.175721
0.179718
0.177829
0.172137
0.16369
0.153514
0.143895
0.136138
0.12965
0.122716
0.116788
0.11131
0.219834
0.202643
0.187948
0.175377
0.164872
0.15668
0.152122
0.154288
0.157348
0.158324
0.154969
0.149324
0.142863
0.135419
0.128957
0.122926
0.117666
0.11232
0.107382
0.102842
0.219955
0.20285
0.188203
0.17565
0.165023
0.156335
0.150303
0.147991
0.1468
0.144964
0.141078
0.13628
0.130958
0.125033
0.119685
0.114681
0.110175
0.105651
0.101462
0.0975294
0.220028
0.202988
0.1884
0.175886
0.165216
0.156377
0.149395
0.144767
0.141225
0.13769
0.133374
0.128739
0.123745
0.118638
0.113936
0.109508
0.105425
0.101403
0.0976335
0.0940801
0.220172
0.203216
0.188661
0.176133
0.165413
0.156409
0.148947
0.143175
0.138357
0.133819
0.129102
0.124367
0.119645
0.11496
0.110611
0.106485
0.102638
0.0988917
0.0953723
0.0920127
0.220266
0.203379
0.188869
0.176359
0.165611
0.156516
0.148735
0.142325
0.136817
0.131697
0.126694
0.121832
0.117236
0.112742
0.108551
0.104571
0.100852
0.097269
0.0938965
0.0906528
0.220352
0.203528
0.189057
0.176567
0.165806
0.156583
0.148691
0.141935
0.136009
0.130542
0.125335
0.120412
0.115784
0.111488
0.107272
0.103405
0.0997694
0.0962877
0.0930085
0.089839
0.220432
0.203666
0.189233
0.176765
0.166003
0.156721
0.148717
0.141754
0.135586
0.129899
0.124551
0.119561
0.114914
0.110583
0.10652
0.102686
0.0990893
0.0956611
0.0924336
0.089307
0.220507
0.203795
0.189399
0.176954
0.166234
0.156877
0.148793
0.141705
0.135379
0.129562
0.124094
0.119018
0.114384
0.11006
0.106013
0.102228
0.09866
0.095272
0.0920843
0.0889924
0.220577
0.203917
0.189555
0.177132
0.166379
0.15704
0.148902
0.14175
0.135316
0.129411
0.123875
0.118801
0.114114
0.10979
0.105759
0.101994
0.0984418
0.095077
0.0919124
0.0888415
0.220644
0.204033
0.189703
0.1773
0.166539
0.157193
0.149029
0.141829
0.135343
0.129378
0.123842
0.118741
0.114039
0.109712
0.105691
0.101931
0.098385
0.0950314
0.0918797
0.0888235
0.220707
0.204143
0.189844
0.177459
0.166709
0.157356
0.149179
0.141957
0.135449
0.129464
0.123912
0.118801
0.114089
0.109756
0.105732
0.10197
0.0984245
0.0950737
0.0919252
0.0888738
0.220751
0.204217
0.189933
0.177555
0.166798
0.157436
0.149244
0.142017
0.135494
0.12951
0.123949
0.118841
0.114125
0.109789
0.105772
0.101995
0.0984439
0.0950881
0.0919353
0.0888837
0.234524
0.212422
0.194018
0.176975
0.176918
0.241491
0.228816
0.208531
0.19189
0.177688
0.165262
0.156608
0.17302
0.338181
4.88644
7.73738
7.88558
8.65164
6.30602
7.85935
0.219337
0.201764
0.186942
0.174377
0.164482
0.159772
0.176727
0.250833
4.18332
5.16256
6.97711
8.13509
4.68621
5.33942
4.47167
0.219425
0.201952
0.187131
0.174622
0.164727
0.159266
0.16808
0.197046
0.27592
0.358674
1.05904
0.319365
0.275003
0.251935
0.249622
0.278672
0.314034
0.334613
0.219567
0.202185
0.187402
0.174879
0.164731
0.158256
0.16036
0.183858
0.216038
0.232797
0.237987
0.231081
0.194007
0.178942
0.166342
0.155661
0.146931
0.13847
0.131299
0.125082
0.219707
0.202422
0.187684
0.175137
0.164773
0.157258
0.155547
0.164742
0.174742
0.178139
0.175917
0.17041
0.161482
0.151782
0.143256
0.1357
0.129088
0.122476
0.116548
0.111208
0.21984
0.202646
0.187955
0.175393
0.164872
0.156709
0.15219
0.154158
0.157133
0.157973
0.154417
0.148983
0.142568
0.13494
0.128624
0.122765
0.117447
0.112246
0.10725
0.10283
0.219961
0.202852
0.188211
0.175654
0.16503
0.156432
0.150336
0.147975
0.146777
0.144917
0.140999
0.136267
0.131053
0.125035
0.119684
0.114685
0.110096
0.105622
0.101392
0.0975204
0.22006
0.20302
0.188423
0.175885
0.165206
0.156375
0.149404
0.144756
0.141222
0.13769
0.133361
0.128688
0.123806
0.118626
0.113945
0.10953
0.105414
0.101418
0.09763
0.0940987
0.220174
0.203217
0.188667
0.176136
0.16541
0.156408
0.148952
0.143162
0.138347
0.133818
0.129096
0.124341
0.119701
0.114972
0.110633
0.106511
0.102639
0.0989006
0.0953645
0.0920198
0.220268
0.203379
0.188874
0.176362
0.165609
0.156492
0.148755
0.142336
0.136818
0.131704
0.126692
0.121791
0.117257
0.11274
0.108561
0.104594
0.100861
0.0972806
0.0938994
0.0906645
0.220354
0.203528
0.189062
0.176571
0.165805
0.156596
0.148694
0.141926
0.136006
0.130545
0.125333
0.120408
0.115807
0.111455
0.107287
0.10342
0.0997777
0.0962943
0.0930095
0.0898456
0.220434
0.203666
0.189238
0.176769
0.166004
0.156733
0.148719
0.141745
0.135582
0.129901
0.124551
0.11956
0.114928
0.110578
0.106514
0.102688
0.0990927
0.0956643
0.0924356
0.0893135
0.220509
0.203795
0.189403
0.176958
0.166222
0.156891
0.148798
0.141698
0.135377
0.129564
0.124094
0.11904
0.114381
0.110082
0.105997
0.102223
0.0986612
0.0952729
0.0920861
0.0889972
0.220579
0.203917
0.189559
0.177137
0.166393
0.157043
0.148901
0.141743
0.135315
0.129411
0.123874
0.118801
0.114115
0.10979
0.105758
0.101998
0.0984503
0.0950822
0.0919177
0.0888476
0.220646
0.204033
0.189707
0.177304
0.166553
0.157197
0.149029
0.141823
0.13534
0.129378
0.123842
0.118741
0.114037
0.109711
0.105687
0.101933
0.0983926
0.0950356
0.0918845
0.0888285
0.220709
0.204143
0.189848
0.177463
0.166716
0.157359
0.14918
0.141953
0.135449
0.129464
0.123913
0.118801
0.114085
0.109753
0.105728
0.101973
0.0984315
0.0950763
0.0919283
0.0888765
0.220753
0.204217
0.189937
0.177559
0.166803
0.157438
0.149244
0.142014
0.135493
0.12951
0.12395
0.118842
0.114122
0.109787
0.105776
0.101996
0.0984489
0.095089
0.0919373
0.0888849
0.234524
0.212546
0.194892
0.179161
0.181283
0.251966
0.228816
0.208538
0.191905
0.177722
0.165347
0.156505
0.16993
0.40936
5.46091
6.7604
6.83666
7.82103
7.43158
7.91011
0.21933
0.201759
0.186938
0.174376
0.16448
0.159761
0.176988
0.257798
4.66592
3.4866
3.75359
4.05489
2.50617
3.18288
3.05832
0.219426
0.201954
0.187132
0.174622
0.164725
0.159241
0.167904
0.196862
0.272341
0.363106
1.47094
0.331117
0.277181
0.242588
0.223835
0.231873
0.251698
0.273829
0.219568
0.202186
0.187404
0.174881
0.164731
0.158238
0.160282
0.183455
0.214211
0.228802
0.232189
0.223498
0.190125
0.177106
0.16519
0.154676
0.145641
0.137544
0.130373
0.124114
0.219709
0.202423
0.187686
0.175139
0.164774
0.157249
0.155527
0.164508
0.174145
0.177116
0.174793
0.169228
0.159817
0.151009
0.14277
0.135316
0.128603
0.122322
0.11649
0.111142
0.219841
0.202647
0.187958
0.175399
0.164876
0.156723
0.152211
0.154093
0.156921
0.15762
0.154039
0.148596
0.14189
0.134566
0.128427
0.122629
0.117252
0.112168
0.107343
0.102879
0.219962
0.202854
0.188213
0.175657
0.165034
0.156462
0.150359
0.147974
0.146732
0.144834
0.140918
0.13622
0.130767
0.124954
0.119721
0.114729
0.110074
0.105654
0.101479
0.0975715
0.220069
0.203035
0.188439
0.175893
0.165209
0.15638
0.149409
0.144755
0.141212
0.137674
0.133345
0.128668
0.123773
0.11858
0.113961
0.109556
0.105415
0.101454
0.097701
0.0941493
0.220175
0.203218
0.18867
0.176139
0.165411
0.156409
0.148954
0.143159
0.138338
0.13381
0.129088
0.124298
0.119707
0.114988
0.11068
0.106559
0.102666
0.0989409
0.0954152
0.0920529
0.220268
0.203379
0.188875
0.176364
0.16561
0.156486
0.148756
0.142338
0.136815
0.131705
0.126691
0.121801
0.117244
0.11273
0.108577
0.104617
0.100878
0.0973072
0.0939321
0.0906902
0.220354
0.203528
0.189064
0.176573
0.165806
0.1566
0.148698
0.141926
0.136004
0.130544
0.125332
0.120407
0.115801
0.111403
0.10732
0.10345
0.0998001
0.0963186
0.0930327
0.0898628
0.220434
0.203666
0.189239
0.176771
0.166006
0.156738
0.148722
0.141744
0.135579
0.1299
0.12455
0.11956
0.114923
0.110563
0.106519
0.102704
0.0991057
0.0956788
0.0924488
0.0893248
0.220509
0.203795
0.189405
0.176961
0.16622
0.156894
0.1488
0.141697
0.135376
0.129564
0.124094
0.119046
0.11438
0.110076
0.105992
0.102225
0.098666
0.0952797
0.0920916
0.0890031
0.22058
0.203918
0.189561
0.177139
0.166399
0.157046
0.148903
0.141742
0.135314
0.129411
0.123874
0.118801
0.114114
0.109784
0.105748
0.101997
0.0984554
0.095089
0.0919226
0.0888536
0.220646
0.204033
0.189709
0.177306
0.166559
0.157201
0.149031
0.141822
0.135339
0.129378
0.123841
0.118741
0.114037
0.109708
0.105677
0.101931
0.0983964
0.0950407
0.0918872
0.0888326
0.22071
0.204144
0.18985
0.177466
0.16672
0.157362
0.149182
0.141953
0.135449
0.129465
0.123913
0.118802
0.114087
0.109752
0.105719
0.101973
0.0984361
0.0950814
0.0919307
0.0888795
0.220753
0.204217
0.189939
0.177561
0.166806
0.15744
0.149245
0.142014
0.135492
0.129509
0.12395
0.118842
0.114125
0.10979
0.105775
0.101995
0.0984527
0.0950926
0.0919382
0.0888864
0.234524
0.212556
0.195063
0.180033
0.182884
0.249658
0.228816
0.20854
0.191912
0.177749
0.165545
0.156985
0.171155
0.452069
4.99131
5.19284
5.06044
5.04685
5.63172
5.97721
0.219327
0.201756
0.186935
0.174375
0.164488
0.15983
0.178137
0.271159
5.45513
2.34397
1.79877
1.63537
1.18602
1.55865
1.70969
0.219426
0.201954
0.187132
0.174621
0.164725
0.15925
0.168199
0.19968
0.284723
0.393173
1.57714
0.34004
0.28145
0.240776
0.213843
0.204308
0.205905
0.216868
0.219568
0.202187
0.187405
0.174881
0.164732
0.158238
0.160338
0.184197
0.216497
0.23181
0.234366
0.22316
0.188873
0.175777
0.164141
0.153849
0.144802
0.136742
0.129519
0.123159
0.219709
0.202423
0.187687
0.175139
0.164776
0.157249
0.155533
0.164652
0.174365
0.177197
0.174602
0.168789
0.159023
0.150344
0.142286
0.134952
0.128259
0.122072
0.116323
0.111019
0.219841
0.202647
0.187958
0.175401
0.164879
0.156729
0.152219
0.154113
0.156933
0.157538
0.153916
0.148341
0.14129
0.134704
0.128509
0.122681
0.117251
0.112154
0.107368
0.102909
0.219962
0.202854
0.188214
0.175658
0.165037
0.156472
0.15037
0.147983
0.146735
0.144795
0.140895
0.136185
0.130537
0.125088
0.119851
0.114848
0.110154
0.105719
0.10155
0.0976324
0.220072
0.203041
0.188447
0.1759
0.165214
0.156386
0.149415
0.14476
0.141215
0.137663
0.133348
0.128668
0.123752
0.118623
0.114012
0.109607
0.105453
0.101493
0.0977487
0.0941953
0.220175
0.203218
0.188671
0.176141
0.165413
0.156412
0.148958
0.143162
0.138338
0.133804
0.129089
0.124283
0.119684
0.115033
0.110734
0.106615
0.102715
0.0989869
0.0954621
0.0920928
0.220268
0.203379
0.188875
0.176365
0.165611
0.156486
0.148757
0.14234
0.136815
0.131702
0.126691
0.121804
0.117234
0.112749
0.108599
0.104642
0.100901
0.0973313
0.0939585
0.0907155
0.220354
0.203528
0.189064
0.176574
0.165807
0.156601
0.1487
0.141927
0.136003
0.130542
0.125332
0.120407
0.115795
0.111402
0.107334
0.103472
0.0998222
0.0963412
0.0930553
0.0898826
0.220434
0.203666
0.18924
0.176772
0.166007
0.156739
0.148724
0.141746
0.135579
0.129899
0.12455
0.11956
0.11492
0.110563
0.106526
0.102716
0.0991179
0.0956916
0.0924616
0.0893368
0.220509
0.203795
0.189405
0.176962
0.166221
0.156895
0.148802
0.141698
0.135376
0.129563
0.124093
0.119048
0.11438
0.110048
0.106011
0.102239
0.0986774
0.0952899
0.0921004
0.089011
0.22058
0.203918
0.189562
0.17714
0.166402
0.157049
0.148905
0.141743
0.135314
0.129411
0.123874
0.118801
0.114115
0.109781
0.105752
0.102002
0.0984601
0.0950944
0.0919279
0.0888591
0.220646
0.204034
0.18971
0.177307
0.166561
0.157204
0.149033
0.141823
0.135339
0.129377
0.123841
0.11874
0.114039
0.109706
0.105679
0.101933
0.0983992
0.0950442
0.0918904
0.088836
0.22071
0.204144
0.18985
0.177467
0.166721
0.157364
0.149184
0.141954
0.135449
0.129465
0.123914
0.118802
0.114091
0.109752
0.105719
0.101973
0.0984384
0.0950845
0.0919337
0.0888826
0.220754
0.204218
0.189939
0.177562
0.166807
0.157442
0.149247
0.142014
0.135492
0.129508
0.123949
0.118842
0.114128
0.109798
0.105773
0.101995
0.098454
0.0950946
0.0919398
0.088888
0.234524
0.212556
0.195081
0.180191
0.183461
0.248352
0.228815
0.208541
0.191914
0.177759
0.165651
0.157363
0.172066
0.45621
4.47114
4.77864
4.03944
3.41853
3.81181
3.7825
0.219326
0.201754
0.186932
0.174374
0.164495
0.159902
0.17888
0.275793
5.59742
2.3032
1.42354
1.01103
0.683605
0.803062
0.90985
0.219426
0.201954
0.187132
0.174621
0.164726
0.159269
0.168509
0.201597
0.29251
0.411905
1.56852
0.345647
0.285227
0.242112
0.211687
0.193546
0.183699
0.182482
0.219568
0.202186
0.187404
0.17488
0.164732
0.158242
0.160436
0.185025
0.219151
0.236344
0.239487
0.226722
0.189833
0.17593
0.1639
0.153444
0.144293
0.136155
0.128866
0.122394
0.219708
0.202423
0.187687
0.175138
0.164776
0.15725
0.155556
0.164924
0.174925
0.177894
0.175094
0.169014
0.158907
0.150108
0.142049
0.134738
0.12805
0.121875
0.116147
0.110869
0.21984
0.202647
0.187958
0.175401
0.16488
0.156732
0.152227
0.154181
0.157087
0.1577
0.154017
0.148312
0.141116
0.134637
0.12852
0.122731
0.117302
0.11219
0.107401
0.102938
0.219962
0.202854
0.188214
0.175658
0.165038
0.156476
0.150376
0.147999
0.146776
0.144823
0.140921
0.136196
0.130473
0.125086
0.1199
0.114926
0.110236
0.105794
0.101619
0.0976941
0.220073
0.203043
0.18845
0.175904
0.165217
0.156391
0.14942
0.144766
0.141228
0.137666
0.133361
0.128681
0.123751
0.118646
0.114054
0.109659
0.105502
0.101537
0.0977919
0.0942367
0.220175
0.203218
0.188672
0.176142
0.165414
0.156414
0.148961
0.143165
0.138344
0.133802
0.129094
0.124282
0.119677
0.115046
0.110765
0.106657
0.102759
0.0990302
0.0955045
0.0921322
0.220268
0.203379
0.188875
0.176365
0.165611
0.156486
0.148758
0.142341
0.136817
0.1317
0.126693
0.121808
0.117234
0.112757
0.108616
0.104662
0.100923
0.0973531
0.0939807
0.0907375
0.220354
0.203528
0.189064
0.176574
0.165807
0.156602
0.148701
0.141928
0.136005
0.130541
0.125333
0.120408
0.115794
0.111403
0.107343
0.103486
0.0998396
0.0963598
0.0930744
0.0899009
0.220434
0.203666
0.18924
0.176772
0.166007
0.15674
0.148726
0.141747
0.13558
0.129899
0.124551
0.119561
0.11492
0.110563
0.106532
0.102724
0.0991276
0.095702
0.0924722
0.0893475
0.220509
0.203796
0.189406
0.176962
0.166221
0.156895
0.148803
0.141699
0.135376
0.129563
0.124093
0.119049
0.114381
0.110039
0.106015
0.102247
0.0986863
0.0952988
0.092109
0.0890192
0.22058
0.203918
0.189562
0.177141
0.166403
0.15705
0.148907
0.141744
0.135315
0.129412
0.123874
0.118802
0.114115
0.109777
0.105756
0.102006
0.0984647
0.0950992
0.0919326
0.0888638
0.220647
0.204034
0.18971
0.177308
0.166562
0.157206
0.149035
0.141824
0.13534
0.129378
0.123842
0.11874
0.11404
0.109703
0.105682
0.101936
0.0984025
0.0950475
0.0918936
0.0888392
0.22071
0.204144
0.189851
0.177467
0.166722
0.157365
0.149185
0.141955
0.13545
0.129466
0.123914
0.118802
0.114092
0.109748
0.105722
0.101976
0.0984407
0.0950871
0.0919363
0.0888854
0.220754
0.204218
0.18994
0.177562
0.166808
0.157443
0.149247
0.142015
0.135492
0.129508
0.123949
0.118841
0.114129
0.109803
0.105774
0.101996
0.0984554
0.0950962
0.0919414
0.0888896
0.234524
0.212556
0.195082
0.180208
0.183566
0.248259
0.228815
0.208542
0.191915
0.177763
0.165688
0.157535
0.172486
0.45588
4.2317
4.68553
3.67075
2.89318
2.94877
2.60965
0.219326
0.201754
0.186931
0.174373
0.164499
0.15995
0.179251
0.276848
5.64323
2.76891
1.70833
1.12131
0.597091
0.596125
0.570312
0.219426
0.201954
0.187131
0.17462
0.164727
0.159283
0.16871
0.202373
0.294753
0.415547
1.57269
0.350907
0.289199
0.244797
0.212804
0.19123
0.175911
0.166968
0.219568
0.202186
0.187404
0.17488
0.164733
0.158246
0.160516
0.185532
0.22052
0.23892
0.243029
0.230249
0.191533
0.176911
0.164343
0.153561
0.144195
0.135889
0.128488
0.121901
0.219708
0.202422
0.187686
0.175138
0.164777
0.157251
0.15558
0.165141
0.175396
0.178575
0.175741
0.169516
0.159168
0.150196
0.142058
0.134709
0.127993
0.121788
0.116038
0.11075
0.21984
0.202646
0.187958
0.1754
0.164881
0.156734
0.152233
0.154251
0.157256
0.157932
0.154225
0.148435
0.141143
0.134633
0.12853
0.122761
0.117341
0.112226
0.107433
0.102966
0.219962
0.202854
0.188214
0.175658
0.165038
0.156478
0.150379
0.148017
0.146826
0.144886
0.140979
0.136241
0.130482
0.125089
0.119919
0.114963
0.110285
0.105846
0.101671
0.0977451
0.220073
0.203043
0.188451
0.175905
0.165219
0.156394
0.149423
0.144772
0.141244
0.137681
0.133378
0.128698
0.123762
0.118661
0.114081
0.109695
0.105543
0.101577
0.0978302
0.0942735
0.220174
0.203218
0.188672
0.176143
0.165415
0.156416
0.148963
0.143168
0.138351
0.133806
0.129099
0.124287
0.11968
0.115053
0.110784
0.106684
0.102791
0.0990638
0.0955384
0.0921662
0.220268
0.203379
0.188875
0.176365
0.165612
0.156487
0.148759
0.142342
0.136821
0.1317
0.126695
0.121812
0.117237
0.112763
0.108627
0.104678
0.10094
0.0973711
0.0939987
0.0907555
0.220354
0.203527
0.189064
0.176574
0.165808
0.156603
0.148702
0.141929
0.136007
0.130542
0.125334
0.120411
0.115796
0.111406
0.10735
0.103496
0.0998524
0.0963741
0.0930895
0.0899162
0.220434
0.203666
0.18924
0.176772
0.166008
0.156741
0.148726
0.141747
0.135581
0.129899
0.124551
0.119563
0.114922
0.110564
0.106536
0.10273
0.0991353
0.0957103
0.0924807
0.0893562
0.220509
0.203796
0.189406
0.176962
0.166221
0.156895
0.148803
0.141699
0.135377
0.129564
0.124094
0.11905
0.114382
0.110038
0.106018
0.102252
0.0986923
0.0953056
0.0921161
0.0890263
0.22058
0.203918
0.189562
0.177141
0.166403
0.157051
0.148907
0.141745
0.135316
0.129412
0.123875
0.118802
0.114116
0.109776
0.105759
0.102009
0.0984686
0.0951032
0.0919367
0.0888679
0.220646
0.204034
0.18971
0.177308
0.166563
0.157206
0.149036
0.141825
0.135341
0.129378
0.123842
0.118741
0.114041
0.109701
0.105684
0.101939
0.0984056
0.0950508
0.0918968
0.0888422
0.22071
0.204144
0.189851
0.177467
0.166723
0.157366
0.149186
0.141956
0.135451
0.129466
0.123915
0.118803
0.114093
0.109745
0.105724
0.101978
0.0984431
0.0950895
0.0919387
0.0888879
0.220754
0.204218
0.18994
0.177562
0.166808
0.157443
0.149248
0.142015
0.135492
0.129508
0.123949
0.118841
0.114129
0.109806
0.105777
0.101999
0.0984575
0.0950981
0.0919432
0.0888914
0.234524
0.212556
0.195082
0.180209
0.183576
0.248286
0.228815
0.208542
0.191916
0.177763
0.165698
0.157592
0.172661
0.456085
4.08122
4.65909
3.74561
3.03792
2.80377
2.21758
0.219326
0.201753
0.18693
0.174373
0.164501
0.159973
0.179424
0.277225
5.47942
3.42058
2.16733
1.42674
0.665553
0.616482
0.480743
0.219426
0.201954
0.187131
0.17462
0.164728
0.159292
0.168818
0.202683
0.295385
0.416527
1.57321
0.355295
0.292988
0.247979
0.215204
0.19241
0.174791
0.161887
0.219568
0.202186
0.187404
0.17488
0.164733
0.15825
0.160566
0.185787
0.22108
0.239969
0.244636
0.232285
0.192931
0.177934
0.165042
0.154019
0.144454
0.135964
0.128418
0.121703
0.219708
0.202422
0.187686
0.175138
0.164777
0.157253
0.155599
0.165272
0.175682
0.179021
0.176244
0.169993
0.159525
0.150424
0.142201
0.1348
0.128043
0.121796
0.116008
0.110692
0.21984
0.202646
0.187958
0.1754
0.164881
0.156734
0.152239
0.154301
0.15738
0.158125
0.154427
0.148603
0.141257
0.134697
0.128567
0.122792
0.11737
0.112251
0.107454
0.102986
0.219962
0.202853
0.188214
0.175658
0.165038
0.156478
0.150381
0.148032
0.146867
0.144949
0.141044
0.136297
0.130519
0.125112
0.119937
0.114982
0.110308
0.105872
0.1017
0.0977765
0.220073
0.203043
0.188451
0.175906
0.16522
0.156395
0.149425
0.144777
0.141256
0.137699
0.133397
0.128716
0.123777
0.118674
0.114096
0.109715
0.105567
0.101604
0.0978575
0.0943015
0.220174
0.203218
0.188672
0.176143
0.165415
0.156417
0.148964
0.14317
0.138355
0.133812
0.129105
0.124293
0.119685
0.115059
0.110793
0.106698
0.102809
0.0990843
0.095561
0.0921911
0.220268
0.203379
0.188875
0.176365
0.165612
0.156487
0.14876
0.142343
0.136823
0.131703
0.126696
0.121816
0.117241
0.112767
0.108634
0.104687
0.100951
0.0973833
0.0940117
0.0907691
0.220354
0.203527
0.189064
0.176574
0.165808
0.156603
0.148703
0.14193
0.136008
0.130543
0.125335
0.120412
0.115798
0.111408
0.107354
0.103502
0.0998601
0.0963834
0.0930999
0.0899276
0.220434
0.203666
0.18924
0.176772
0.166008
0.156741
0.148727
0.141748
0.135582
0.1299
0.124552
0.119564
0.114923
0.110565
0.106539
0.102734
0.0991405
0.0957161
0.092487
0.0893629
0.220509
0.203795
0.189406
0.176962
0.166222
0.156896
0.148804
0.141699
0.135378
0.129564
0.124094
0.11905
0.114383
0.110038
0.106019
0.102254
0.098696
0.0953101
0.0921211
0.0890317
0.22058
0.203918
0.189562
0.177141
0.166403
0.157051
0.148908
0.141745
0.135316
0.129412
0.123875
0.118803
0.114117
0.109776
0.10576
0.102011
0.0984711
0.0951061
0.0919398
0.0888712
0.220646
0.204034
0.18971
0.177308
0.166563
0.157207
0.149036
0.141826
0.135342
0.129379
0.123843
0.118741
0.114041
0.109701
0.105685
0.101941
0.0984077
0.0950533
0.0918996
0.088845
0.22071
0.204144
0.189851
0.177467
0.166723
0.157366
0.149187
0.141956
0.135451
0.129467
0.123915
0.118803
0.114093
0.109745
0.105725
0.101979
0.0984447
0.0950913
0.0919407
0.0888899
0.220754
0.204218
0.18994
0.177562
0.166808
0.157444
0.149248
0.142016
0.135493
0.129508
0.123949
0.118841
0.11413
0.109807
0.105778
0.102
0.0984593
0.0951
0.0919451
0.0888932
0.234524
0.212556
0.195082
0.180209
0.183575
0.248296
0.228815
0.208542
0.191916
0.177763
0.1657
0.157608
0.172721
0.456236
4.10315
4.98562
4.23818
3.59893
3.16131
2.34017
0.219326
0.201753
0.18693
0.174373
0.164502
0.159984
0.179498
0.277385
5.00576
3.92271
2.59204
1.75724
0.781659
0.713834
0.503001
0.219426
0.201954
0.187131
0.17462
0.164728
0.159297
0.168869
0.202815
0.295631
0.417145
1.57984
0.358468
0.29625
0.251245
0.218151
0.195052
0.176599
0.16177
0.219568
0.202186
0.187404
0.17488
0.164733
0.158252
0.160593
0.185905
0.221309
0.240374
0.245267
0.233183
0.193772
0.178684
0.16571
0.15458
0.144896
0.136277
0.128598
0.121759
0.219708
0.202422
0.187686
0.175138
0.164777
0.157254
0.15561
0.165341
0.175832
0.179263
0.176548
0.170324
0.159831
0.150677
0.142395
0.13495
0.128149
0.121862
0.116034
0.110685
0.21984
0.202646
0.187958
0.1754
0.164881
0.156735
0.152243
0.154332
0.157455
0.158249
0.154576
0.148751
0.141387
0.134795
0.128628
0.122822
0.117385
0.112258
0.107457
0.102988
0.219962
0.202853
0.188214
0.175658
0.165038
0.156479
0.150383
0.148043
0.146895
0.144997
0.141097
0.136348
0.130562
0.125144
0.119956
0.114994
0.110317
0.105881
0.10171
0.0977892
0.220073
0.203043
0.188452
0.175906
0.165221
0.156396
0.149426
0.14478
0.141264
0.137714
0.133412
0.12873
0.123789
0.118683
0.114103
0.10972
0.105573
0.101613
0.0978697
0.0943167
0.220174
0.203218
0.188672
0.176143
0.165416
0.156417
0.148965
0.143171
0.138358
0.133817
0.129109
0.124297
0.119689
0.115062
0.110795
0.1067
0.102813
0.0990916
0.0955712
0.0922047
0.220268
0.203379
0.188875
0.176365
0.165612
0.156487
0.14876
0.142344
0.136824
0.131705
0.126698
0.121817
0.117243
0.112769
0.108636
0.104689
0.100955
0.0973883
0.0940184
0.0907773
0.220354
0.203527
0.189064
0.176574
0.165808
0.156603
0.148703
0.14193
0.136009
0.130544
0.125336
0.120413
0.115799
0.111409
0.107355
0.103504
0.0998627
0.0963874
0.0931055
0.0899346
0.220434
0.203666
0.18924
0.176772
0.166008
0.156741
0.148727
0.141748
0.135583
0.129901
0.124553
0.119565
0.114924
0.110566
0.10654
0.102736
0.0991427
0.0957191
0.0924907
0.0893673
0.220509
0.203795
0.189406
0.176962
0.166222
0.156896
0.148804
0.1417
0.135378
0.129564
0.124094
0.119051
0.114384
0.110038
0.10602
0.102255
0.0986976
0.0953123
0.0921241
0.0890352
0.22058
0.203918
0.189562
0.177141
0.166403
0.157051
0.148908
0.141745
0.135317
0.129413
0.123876
0.118803
0.114117
0.109776
0.10576
0.102012
0.0984721
0.0951075
0.0919416
0.0888734
0.220646
0.204034
0.18971
0.177308
0.166563
0.157207
0.149037
0.141826
0.135342
0.129379
0.123843
0.118742
0.114042
0.109701
0.105685
0.101941
0.0984086
0.0950546
0.0919013
0.0888471
0.22071
0.204144
0.189851
0.177467
0.166723
0.157366
0.149187
0.141957
0.135452
0.129467
0.123915
0.118804
0.114093
0.109745
0.105725
0.10198
0.0984454
0.0950923
0.0919419
0.0888914
0.220754
0.204218
0.18994
0.177563
0.166808
0.157444
0.149249
0.142016
0.135493
0.129508
0.123949
0.118841
0.11413
0.109808
0.105779
0.102001
0.0984604
0.0951013
0.0919465
0.0888948
0.234524
0.212556
0.195082
0.180209
0.183573
0.248299
0.228815
0.208542
0.191916
0.177763
0.165701
0.157612
0.172738
0.456274
4.32723
5.70417
5.02508
4.37877
3.79353
2.75922
0.219325
0.201753
0.18693
0.174373
0.164502
0.159987
0.179525
0.277439
5.49481
4.38555
3.01099
2.08113
0.914363
0.839426
0.573531
0.219426
0.201954
0.187131
0.17462
0.164728
0.159299
0.168892
0.202866
0.295721
0.417407
1.59281
0.361549
0.299762
0.254828
0.221523
0.198455
0.179803
0.164018
0.219568
0.202186
0.187404
0.17488
0.164733
0.158253
0.160606
0.185954
0.221398
0.240525
0.245496
0.233517
0.194203
0.179167
0.166236
0.155087
0.145359
0.13669
0.128914
0.121975
0.219708
0.202422
0.187686
0.175138
0.164777
0.157254
0.155616
0.165373
0.175899
0.179373
0.176702
0.170513
0.16005
0.150901
0.14259
0.135102
0.128267
0.121948
0.116088
0.110711
0.21984
0.202646
0.187958
0.1754
0.164881
0.156735
0.152245
0.154348
0.157494
0.158317
0.154663
0.14886
0.141499
0.1349
0.128695
0.122858
0.117399
0.112261
0.107452
0.10298
0.219961
0.202853
0.188214
0.175658
0.165038
0.156479
0.150383
0.148049
0.146911
0.145026
0.141132
0.136383
0.130598
0.125174
0.119972
0.114999
0.110315
0.105876
0.101706
0.0977872
0.220073
0.203043
0.188451
0.175906
0.165221
0.156396
0.149426
0.144782
0.141268
0.137723
0.133422
0.128738
0.123796
0.118687
0.114099
0.109712
0.105564
0.101605
0.0978661
0.0943174
0.220174
0.203218
0.188672
0.176143
0.165416
0.156417
0.148965
0.143172
0.138358
0.133819
0.129111
0.124298
0.119689
0.11506
0.11079
0.106693
0.102807
0.0990868
0.0955697
0.0922067
0.220268
0.203379
0.188875
0.176365
0.165612
0.156487
0.14876
0.142344
0.136824
0.131705
0.126698
0.121816
0.117241
0.112767
0.108632
0.104685
0.100951
0.0973856
0.094018
0.0907791
0.220354
0.203527
0.189064
0.176574
0.165807
0.156603
0.148703
0.14193
0.136009
0.130544
0.125336
0.120413
0.115799
0.111408
0.107352
0.103501
0.0998602
0.0963861
0.0931059
0.0899369
0.220434
0.203666
0.18924
0.176772
0.166008
0.156741
0.148727
0.141748
0.135583
0.129901
0.124553
0.119565
0.114924
0.110565
0.106539
0.102734
0.0991415
0.0957187
0.0924914
0.0893691
0.220509
0.203795
0.189406
0.176962
0.166222
0.156896
0.148804
0.1417
0.135378
0.129564
0.124094
0.119051
0.114383
0.110038
0.106019
0.102254
0.0986968
0.0953122
0.0921249
0.0890368
0.22058
0.203918
0.189562
0.177141
0.166404
0.157051
0.148908
0.141746
0.135317
0.129413
0.123876
0.118803
0.114117
0.109776
0.10576
0.102011
0.0984716
0.0951074
0.091942
0.0888744
0.220646