/*--------------------------------*- C++ -*----------------------------------*\
  =========                 |
  \\      /  F ield         | OpenFOAM: The Open Source CFD Toolbox
   \\    /   O peration     | Website:  https://openfoam.org
    \\  /    A nd           | Version:  10
     \\/     M anipulation  |
\*---------------------------------------------------------------------------*/
FoamFile
{
    format      ascii;
    class       volScalarField;
    location    "2000";
    object      nut;
}
// * * * * * * * * * * * * * * * * * * * * * * * * * * * * * * * * * * * * * //

dimensions      [0 2 -1 0 0 0 0];

internalField   nonuniform List<scalar> 
55398
(
0.133826
0.120746
0.1063
0.0547909
0.0503479
0.0467467
0.134522
0.133684
0.133089
0.13212
0.128933
0.121161
0.091069
0.0882218
0.311492
0.848338
1.41765
1.74931
1.75956
1.7656
0.134101
0.133408
0.132913
0.132643
0.132886
0.133097
0.125278
0.115147
0.208862
0.845458
1.01364
1.28412
1.29975
1.19291
1.06132
0.134055
0.133361
0.132822
0.132533
0.132814
0.134336
0.135286
0.133023
0.095909
0.0437384
0.0884357
0.109399
0.124431
0.13891
0.159078
0.176347
0.19113
0.203771
0.134029
0.13331
0.13273
0.132376
0.132483
0.133862
0.136904
0.14189
0.13812
0.125103
0.10936
0.116231
0.123808
0.134933
0.137484
0.138905
0.139857
0.140703
0.141211
0.141529
0.134013
0.133278
0.132665
0.132243
0.132179
0.133042
0.135789
0.140549
0.143423
0.142813
0.14339
0.145965
0.145946
0.145657
0.145019
0.144524
0.144151
0.143413
0.142854
0.142289
0.134002
0.133255
0.132617
0.132139
0.131939
0.132387
0.134039
0.137837
0.140858
0.14253
0.143764
0.143884
0.143602
0.142917
0.142061
0.141367
0.140838
0.13998
0.139347
0.138699
0.133995
0.133239
0.132582
0.132063
0.131764
0.131898
0.132808
0.135109
0.137347
0.138919
0.139655
0.139744
0.139454
0.13879
0.138105
0.137482
0.137
0.136258
0.135702
0.135139
0.133984
0.133221
0.132553
0.132005
0.131635
0.131559
0.132005
0.133209
0.134541
0.135551
0.135965
0.135967
0.135633
0.135078
0.13451
0.134039
0.133633
0.133067
0.132606
0.132181
0.133985
0.133216
0.132534
0.13196
0.131537
0.131335
0.131464
0.132037
0.13274
0.133222
0.133349
0.133223
0.132923
0.132498
0.132067
0.131689
0.131352
0.130904
0.130528
0.130152
0.133982
0.133208
0.132517
0.131925
0.131463
0.131176
0.131114
0.13131
0.131591
0.131727
0.131652
0.13143
0.131128
0.130757
0.130387
0.130042
0.129747
0.129372
0.129049
0.128704
0.13398
0.133201
0.132503
0.131896
0.131405
0.13106
0.130879
0.130855
0.13088
0.13081
0.130603
0.130307
0.129982
0.129651
0.129301
0.128988
0.128712
0.128387
0.128102
0.12778
0.133978
0.133196
0.132491
0.131874
0.131361
0.130973
0.130716
0.130562
0.130433
0.130228
0.129927
0.129583
0.129235
0.128904
0.12858
0.128279
0.128008
0.127708
0.127441
0.127131
0.133976
0.133191
0.132482
0.131857
0.13133
0.13091
0.1306
0.130366
0.130145
0.129859
0.129483
0.129097
0.128734
0.128398
0.128082
0.127791
0.127524
0.127243
0.126993
0.126695
0.133975
0.133188
0.132475
0.131843
0.131303
0.130863
0.130516
0.130239
0.129954
0.129617
0.129199
0.128791
0.128414
0.128074
0.127764
0.127478
0.127214
0.126944
0.126703
0.126412
0.133974
0.133186
0.13247
0.131833
0.131284
0.130829
0.130458
0.130147
0.129829
0.129458
0.12904
0.12862
0.128234
0.127891
0.127584
0.127298
0.127035
0.126771
0.126535
0.126252
0.133974
0.133185
0.132467
0.131826
0.13127
0.130805
0.130422
0.130091
0.129759
0.129376
0.128948
0.128524
0.128135
0.127789
0.127479
0.127192
0.126929
0.126665
0.126429
0.126149
0.133969
0.133173
0.132447
0.131796
0.131229
0.13075
0.13035
0.130007
0.129659
0.129272
0.128834
0.12841
0.128019
0.12767
0.127357
0.127066
0.126796
0.126527
0.126286
0.126003
0.134442
0.126554
0.118898
0.0815713
0.0412332
0.0438927
0.134529
0.133683
0.133104
0.132193
0.128377
0.119951
0.0910975
0.058784
0.490506
0.865882
1.21182
1.49743
1.56592
1.88836
0.134098
0.133406
0.132909
0.132633
0.132873
0.133227
0.125196
0.117374
0.191148
0.772119
1.21222
1.52058
1.51328
1.35569
1.593
0.134055
0.133361
0.132822
0.13253
0.132806
0.134332
0.135308
0.133458
0.0736177
0.0519154
0.115527
0.10882
0.11627
0.128305
0.148522
0.181437
0.211174
0.228836
0.134029
0.13331
0.132729
0.132373
0.132476
0.133822
0.136769
0.142094
0.137134
0.124722
0.114629
0.115218
0.128823
0.132435
0.135237
0.136951
0.138189
0.139398
0.140233
0.140829
0.134013
0.133278
0.132664
0.132241
0.132175
0.132998
0.135693
0.140326
0.143237
0.142737
0.144003
0.145103
0.145437
0.145141
0.14463
0.144201
0.143875
0.14319
0.142595
0.141937
0.134002
0.133256
0.132617
0.13214
0.131938
0.132353
0.133989
0.137661
0.140623
0.142359
0.143446
0.14367
0.143436
0.142695
0.142002
0.141318
0.140799
0.140008
0.139264
0.138533
0.133995
0.133239
0.132582
0.132063
0.131763
0.131887
0.132739
0.134967
0.137155
0.138733
0.13946
0.139643
0.1394
0.138678
0.138029
0.137418
0.136946
0.136264
0.135635
0.13501
0.133988
0.133224
0.132553
0.132004
0.131632
0.131554
0.131981
0.13314
0.134444
0.135436
0.135849
0.13589
0.135582
0.135017
0.134506
0.134026
0.133632
0.133098
0.1326
0.132105
0.133985
0.133216
0.132534
0.13196
0.131536
0.131331
0.13146
0.132006
0.132672
0.133153
0.133284
0.133178
0.132895
0.13246
0.132059
0.131674
0.131342
0.130915
0.130517
0.1301
0.133982
0.133208
0.132517
0.131925
0.131462
0.131174
0.131115
0.131299
0.131556
0.131692
0.131617
0.131403
0.131117
0.130738
0.130386
0.130044
0.129743
0.129383
0.129049
0.12868
0.13398
0.133201
0.132503
0.131896
0.131405
0.131058
0.130876
0.130847
0.130866
0.13079
0.13058
0.130286
0.129971
0.129648
0.129293
0.128986
0.128708
0.128393
0.128101
0.127764
0.133978
0.133196
0.132491
0.131874
0.131361
0.130973
0.130714
0.130557
0.130427
0.130217
0.129915
0.12957
0.129228
0.128901
0.12858
0.12828
0.128008
0.127713
0.127442
0.127123
0.133976
0.133192
0.132482
0.131857
0.13133
0.13091
0.130599
0.130363
0.130141
0.129854
0.129477
0.129088
0.12873
0.128396
0.128082
0.127792
0.127525
0.127247
0.126994
0.126691
0.133975
0.133188
0.132475
0.131843
0.131303
0.130863
0.130515
0.130237
0.129951
0.129614
0.129195
0.128788
0.128413
0.128074
0.127765
0.127479
0.127216
0.126947
0.126704
0.126411
0.133974
0.133186
0.132471
0.131833
0.131284
0.130829
0.130458
0.130146
0.129827
0.129456
0.129038
0.128618
0.128233
0.127891
0.127584
0.127299
0.127037
0.126773
0.126536
0.126252
0.133974
0.133185
0.132467
0.131826
0.13127
0.130805
0.130421
0.130091
0.129758
0.129375
0.128947
0.128524
0.128134
0.127789
0.127479
0.127193
0.126929
0.126666
0.12643
0.126148
0.133968
0.133173
0.132447
0.131796
0.131229
0.13075
0.130349
0.130007
0.129659
0.129272
0.128834
0.128411
0.128019
0.127671
0.127359
0.127067
0.126797
0.126528
0.126287
0.126003
0.134548
0.131999
0.12546
0.109324
0.0502671
0.0453681
0.134529
0.133696
0.133118
0.132375
0.12806
0.121611
0.094233
0.0756978
0.705569
1.106
1.32357
1.46926
1.48769
1.40386
0.134096
0.133407
0.13291
0.132633
0.132841
0.133541
0.125741
0.110914
0.122329
0.665941
1.09517
1.43332
1.24675
1.42508
1.45272
0.134054
0.133361
0.132821
0.13253
0.1328
0.134365
0.135043
0.131257
0.0714135
0.0782529
0.110753
0.112424
0.115469
0.122123
0.134144
0.163035
0.195652
0.221527
0.134029
0.13331
0.132729
0.132373
0.132477
0.133795
0.136577
0.141518
0.140124
0.130067
0.122235
0.122592
0.131787
0.133734
0.135288
0.136484
0.137523
0.138555
0.139403
0.140041
0.134013
0.133278
0.132664
0.13224
0.132177
0.132964
0.135623
0.140099
0.143223
0.143208
0.14434
0.145255
0.14524
0.144846
0.144427
0.144007
0.143629
0.14302
0.142415
0.1418
0.134002
0.133256
0.132617
0.13214
0.13194
0.132327
0.134
0.137601
0.140575
0.142373
0.143369
0.143616
0.143286
0.142485
0.141849
0.141224
0.140661
0.139937
0.139156
0.138491
0.133995
0.133239
0.132583
0.132063
0.131764
0.131871
0.13277
0.134971
0.137155
0.138727
0.139435
0.139645
0.139455
0.138676
0.138019
0.137407
0.136873
0.136227
0.135565
0.134984
0.133989
0.133225
0.132554
0.132004
0.131633
0.131551
0.13197
0.133132
0.134453
0.135443
0.135847
0.135876
0.135616
0.135006
0.134501
0.134031
0.133606
0.133098
0.132582
0.132108
0.133985
0.133216
0.132534
0.13196
0.131536
0.131332
0.131451
0.131998
0.132675
0.133157
0.133284
0.133176
0.132929
0.132467
0.132068
0.131684
0.131329
0.130914
0.130502
0.130098
0.133982
0.133208
0.132517
0.131925
0.131462
0.131174
0.131109
0.131297
0.131562
0.131699
0.13162
0.131385
0.131131
0.130739
0.13039
0.130053
0.129739
0.129388
0.129046
0.128685
0.13398
0.133201
0.132503
0.131896
0.131405
0.131058
0.130876
0.130848
0.130868
0.130792
0.130579
0.130279
0.129987
0.12964
0.129297
0.128992
0.128707
0.128395
0.128099
0.127767
0.133978
0.133196
0.132491
0.131874
0.131362
0.130972
0.130714
0.130558
0.130428
0.130219
0.129916
0.129566
0.129238
0.128898
0.12858
0.128282
0.128007
0.127715
0.127443
0.127126
0.133976
0.133192
0.132482
0.131857
0.13133
0.13091
0.130599
0.130364
0.130142
0.129855
0.129477
0.129089
0.128734
0.1284
0.128082
0.127793
0.127526
0.127249
0.126995
0.126694
0.133975
0.133188
0.132476
0.131844
0.131304
0.130863
0.130516
0.130238
0.129952
0.129614
0.129195
0.128788
0.128414
0.128075
0.127766
0.127482
0.127218
0.12695
0.126706
0.126414
0.133974
0.133186
0.132471
0.131834
0.131285
0.130829
0.130458
0.130146
0.129828
0.129457
0.129038
0.128618
0.128234
0.127892
0.127584
0.127301
0.127039
0.126775
0.126538
0.126254
0.133974
0.133185
0.132467
0.131826
0.131271
0.130805
0.130422
0.130091
0.129758
0.129375
0.128947
0.128524
0.128134
0.127789
0.127479
0.127195
0.126931
0.126667
0.126431
0.126149
0.133969
0.133173
0.132447
0.131796
0.131229
0.13075
0.130349
0.130007
0.129659
0.129272
0.128835
0.128411
0.128019
0.127671
0.12736
0.127069
0.126799
0.12653
0.126288
0.126005
0.134551
0.132582
0.128595
0.118175
0.0584635
0.0486973
0.134529
0.1337
0.13313
0.13254
0.129082
0.123696
0.0979108
0.0848305
0.564043
0.774361
0.951196
1.07793
1.48063
1.36708
0.134096
0.133406
0.13291
0.132638
0.132858
0.133863
0.127088
0.109894
0.131239
0.451949
0.659521
0.859095
0.804658
0.999847
1.12899
0.134054
0.13336
0.132821
0.13253
0.1328
0.134427
0.135422
0.130252
0.0722774
0.0826823
0.140761
0.120411
0.120396
0.122433
0.127472
0.14396
0.167225
0.192608
0.134029
0.13331
0.132729
0.132372
0.132478
0.133797
0.136633
0.14115
0.139529
0.13094
0.125054
0.127681
0.134762
0.135598
0.136586
0.137339
0.138003
0.138547
0.139093
0.139564
0.134013
0.133278
0.132664
0.13224
0.132178
0.132954
0.135613
0.139932
0.143064
0.143332
0.14461
0.145497
0.145282
0.14488
0.144448
0.144004
0.143547
0.142988
0.142386
0.141746
0.134002
0.133256
0.132617
0.13214
0.131941
0.132318
0.134
0.137551
0.140497
0.142341
0.143343
0.143561
0.143135
0.142391
0.141804
0.141191
0.140579
0.13991
0.139205
0.138507
0.133995
0.133239
0.132583
0.132063
0.131765
0.131865
0.132775
0.134966
0.137136
0.138706
0.139418
0.13964
0.139327
0.138653
0.13805
0.137438
0.136853
0.136241
0.135624
0.135015
0.13399
0.133226
0.132555
0.132005
0.131634
0.131551
0.131966
0.133127
0.134447
0.135438
0.135844
0.135874
0.135585
0.134992
0.134515
0.134047
0.133597
0.133117
0.132635
0.132143
0.133985
0.133216
0.132534
0.13196
0.131537
0.131332
0.131448
0.131994
0.132671
0.133155
0.133282
0.133167
0.132932
0.132481
0.132099
0.131715
0.131339
0.130938
0.130542
0.130123
0.133982
0.133208
0.132517
0.131925
0.131462
0.131174
0.131107
0.131293
0.131559
0.131699
0.131621
0.131383
0.131127
0.130741
0.130403
0.130068
0.129745
0.129403
0.129073
0.128704
0.13398
0.133201
0.132503
0.131896
0.131405
0.131058
0.130876
0.130848
0.130867
0.130792
0.130579
0.130278
0.129981
0.12963
0.129314
0.129008
0.128715
0.128408
0.128117
0.127779
0.133978
0.133196
0.132491
0.131874
0.131362
0.130972
0.130713
0.130558
0.130429
0.13022
0.129916
0.129566
0.129234
0.128892
0.128586
0.128291
0.128012
0.127723
0.127454
0.127135
0.133976
0.133192
0.132483
0.131857
0.13133
0.13091
0.130599
0.130364
0.130142
0.129856
0.129478
0.12909
0.128731
0.128395
0.128081
0.127796
0.127528
0.127254
0.127002
0.126699
0.133975
0.133189
0.132476
0.131844
0.131305
0.130864
0.130516
0.130238
0.129953
0.129615
0.129196
0.128788
0.128413
0.128072
0.127765
0.127483
0.12722
0.126953
0.126711
0.126419
0.133975
0.133186
0.132471
0.131834
0.131285
0.130829
0.130459
0.130146
0.129828
0.129457
0.129039
0.128618
0.128233
0.127891
0.127583
0.127302
0.12704
0.126777
0.126541
0.126257
0.133974
0.133185
0.132467
0.131827
0.131271
0.130805
0.130422
0.130091
0.129759
0.129376
0.128948
0.128524
0.128134
0.127788
0.127478
0.127196
0.126933
0.126669
0.126433
0.126151
0.133969
0.133173
0.132447
0.131797
0.131229
0.13075
0.130349
0.130006
0.129658
0.129271
0.128834
0.128411
0.128019
0.127672
0.12736
0.12707
0.126801
0.126532
0.126291
0.126007
0.134551
0.132612
0.129049
0.120258
0.0614685
0.0490298
0.134529
0.133702
0.133135
0.132611
0.129846
0.125625
0.101066
0.0904293
0.352205
0.512361
0.614743
0.722618
0.87649
1.07675
0.134095
0.133406
0.13291
0.132641
0.132888
0.134146
0.128643
0.113254
0.201273
0.320883
0.357985
0.421919
0.458377
0.598074
0.758692
0.134054
0.13336
0.132821
0.13253
0.132804
0.134496
0.136037
0.131473
0.0755968
0.086604
0.146362
0.12465
0.124828
0.125345
0.127026
0.133974
0.146138
0.163752
0.134029
0.13331
0.132729
0.132372
0.132478
0.133811
0.136815
0.141555
0.140027
0.131674
0.126127
0.129264
0.136325
0.137141
0.138059
0.138638
0.139036
0.139221
0.139398
0.139548
0.134013
0.133278
0.132664
0.13224
0.132179
0.132954
0.135651
0.140034
0.143193
0.143525
0.144833
0.145719
0.145391
0.144986
0.144568
0.144118
0.143616
0.14303
0.142408
0.141746
0.134002
0.133256
0.132617
0.13214
0.131941
0.132316
0.134006
0.137566
0.140518
0.142369
0.143367
0.143529
0.143017
0.142482
0.141886
0.141266
0.140621
0.139937
0.139241
0.138536
0.133995
0.133239
0.132583
0.132063
0.131765
0.131864
0.132775
0.134969
0.13714
0.138702
0.139424
0.13964
0.139231
0.138734
0.138134
0.13752
0.13691
0.136288
0.135675
0.135058
0.13399
0.133226
0.132556
0.132005
0.131635
0.131551
0.131966
0.133126
0.134447
0.135434
0.135849
0.135878
0.135562
0.135026
0.134552
0.134084
0.133622
0.133142
0.132669
0.132177
0.133985
0.133216
0.132534
0.13196
0.131537
0.131333
0.131448
0.131993
0.132669
0.133151
0.133283
0.133163
0.132921
0.132513
0.132135
0.131754
0.131372
0.130969
0.130576
0.130153
0.133982
0.133208
0.132517
0.131925
0.131462
0.131174
0.131107
0.131292
0.131557
0.131696
0.131621
0.131382
0.13112
0.130756
0.130419
0.130086
0.12976
0.129419
0.129092
0.128724
0.13398
0.133201
0.132503
0.131897
0.131405
0.131059
0.130876
0.130848
0.130866
0.130791
0.130579
0.130277
0.129976
0.129636
0.129325
0.129022
0.128729
0.128422
0.128132
0.127794
0.133978
0.133196
0.132491
0.131874
0.131362
0.130972
0.130713
0.130558
0.130428
0.13022
0.129917
0.129566
0.129231
0.128894
0.128591
0.128298
0.128019
0.127731
0.127463
0.127144
0.133976
0.133192
0.132483
0.131857
0.13133
0.13091
0.130599
0.130364
0.130141
0.129855
0.129478
0.12909
0.128729
0.128392
0.128087
0.127802
0.127533
0.127259
0.127008
0.126705
0.133975
0.133189
0.132476
0.131844
0.131305
0.130864
0.130517
0.130239
0.129953
0.129615
0.129196
0.128788
0.128412
0.128072
0.127767
0.127486
0.127223
0.126957
0.126715
0.126423
0.133975
0.133186
0.132471
0.131834
0.131285
0.130829
0.130459
0.130147
0.129828
0.129457
0.129039
0.128619
0.128233
0.12789
0.127585
0.127303
0.127042
0.126779
0.126543
0.126259
0.133974
0.133185
0.132467
0.131827
0.131271
0.130806
0.130422
0.130091
0.129759
0.129376
0.128948
0.128524
0.128134
0.127788
0.127479
0.127197
0.126934
0.126671
0.126436
0.126154
0.133969
0.133173
0.132447
0.131797
0.131229
0.13075
0.130349
0.130006
0.129658
0.129271
0.128834
0.12841
0.128019
0.127672
0.127361
0.127071
0.126802
0.126534
0.126292
0.126008
0.13455
0.132613
0.129084
0.12054
0.0620724
0.0490635
0.134529
0.133702
0.133137
0.132633
0.130138
0.126651
0.102749
0.0920024
0.307674
0.428325
0.514515
0.534387
0.666542
0.839646
0.134095
0.133405
0.132909
0.132643
0.132909
0.134337
0.129684
0.115455
0.353521
0.330951
0.30245
0.288012
0.292583
0.353409
0.470732
0.134054
0.13336
0.13282
0.13253
0.132807
0.13455
0.136545
0.132874
0.077112
0.0893921
0.14726
0.126734
0.127588
0.128137
0.128817
0.131348
0.136517
0.145791
0.134029
0.13331
0.132729
0.132372
0.132479
0.133823
0.137
0.142221
0.141365
0.133355
0.127796
0.130685
0.137444
0.138268
0.139218
0.139779
0.140076
0.140065
0.140003
0.139883
0.134013
0.133278
0.132664
0.132239
0.132179
0.132956
0.135702
0.140286
0.143604
0.144012
0.145267
0.146088
0.145632
0.145185
0.144759
0.144301
0.143771
0.143146
0.142484
0.14179
0.134002
0.133256
0.132617
0.132139
0.131941
0.132316
0.134016
0.137635
0.140652
0.14253
0.1435
0.143599
0.143031
0.142519
0.141953
0.141351
0.140704
0.140005
0.139297
0.138581
0.133995
0.133239
0.132583
0.132063
0.131765
0.131864
0.132777
0.134982
0.137175
0.138741
0.139461
0.139669
0.13922
0.138747
0.138175
0.13758
0.136973
0.136345
0.135728
0.135106
0.13399
0.133226
0.132556
0.132005
0.131635
0.131551
0.131966
0.133128
0.134455
0.135438
0.13586
0.13589
0.135564
0.13504
0.13458
0.13412
0.133658
0.133175
0.132701
0.132208
0.133985
0.133216
0.132534
0.13196
0.131537
0.131333
0.131448
0.131993
0.132671
0.133149
0.133285
0.133164
0.132918
0.132523
0.132157
0.131783
0.131404
0.131
0.130608
0.130183
0.133982
0.133208
0.132517
0.131925
0.131462
0.131175
0.131107
0.131292
0.131558
0.131694
0.131621
0.131383
0.131119
0.13076
0.130429
0.1301
0.129775
0.129434
0.129108
0.12874
0.13398
0.133201
0.132503
0.131897
0.131405
0.131059
0.130876
0.130848
0.130867
0.13079
0.130579
0.130278
0.129975
0.129638
0.129331
0.129033
0.128741
0.128435
0.128146
0.127807
0.133978
0.133196
0.132492
0.131874
0.131362
0.130972
0.130713
0.130558
0.130428
0.13022
0.129917
0.129567
0.129231
0.128895
0.128594
0.128304
0.128025
0.127737
0.12747
0.127152
0.133976
0.133192
0.132483
0.131857
0.13133
0.13091
0.130599
0.130364
0.130141
0.129855
0.129478
0.12909
0.128729
0.128391
0.128089
0.127805
0.127537
0.127263
0.127013
0.126711
0.133975
0.133189
0.132476
0.131844
0.131305
0.130864
0.130517
0.130239
0.129953
0.129615
0.129196
0.128789
0.128412
0.128071
0.127769
0.127488
0.127225
0.126959
0.126718
0.126426
0.133975
0.133186
0.132471
0.131834
0.131285
0.130829
0.130459
0.130147
0.129828
0.129457
0.129039
0.128619
0.128233
0.12789
0.127585
0.127305
0.127044
0.126781
0.126545
0.126262
0.133974
0.133185
0.132467
0.131827
0.131271
0.130806
0.130422
0.130092
0.129759
0.129376
0.128948
0.128524
0.128134
0.127787
0.12748
0.127198
0.126935
0.126673
0.126437
0.126156
0.133969
0.133173
0.132447
0.131797
0.131229
0.13075
0.130349
0.130006
0.129657
0.12927
0.128833
0.12841
0.128019
0.127672
0.127361
0.127071
0.126803
0.126535
0.126294
0.12601
0.13455
0.132613
0.129085
0.120563
0.0621471
0.0490897
0.134529
0.133702
0.133138
0.132638
0.130218
0.127027
0.103426
0.0922393
0.462332
0.475499
0.552369
0.500402
0.620703
0.6388
0.134095
0.133405
0.132909
0.132644
0.132919
0.134439
0.130214
0.116264
0.415518
0.39234
0.356321
0.317527
0.260398
0.274036
0.319145
0.134054
0.13336
0.13282
0.13253
0.132809
0.134583
0.136855
0.133649
0.0773149
0.090545
0.148248
0.128143
0.129315
0.130147
0.130736
0.131826
0.133887
0.137955
0.134029
0.13331
0.132729
0.132372
0.132479
0.133833
0.137132
0.142717
0.142344
0.134741
0.129394
0.132261
0.138567
0.139252
0.140138
0.140684
0.140941
0.140835
0.14065
0.140367
0.134013
0.133278
0.132664
0.132239
0.132179
0.132959
0.135745
0.140515
0.144019
0.144555
0.145799
0.146566
0.145997
0.145471
0.145008
0.14453
0.143975
0.143312
0.142607
0.141874
0.134002
0.133256
0.132617
0.132139
0.131941
0.132316
0.134027
0.137712
0.140816
0.142751
0.143707
0.14376
0.143138
0.142598
0.142029
0.14143
0.140783
0.140076
0.139359
0.138632
0.133995
0.133239
0.132583
0.132063
0.131765
0.131864
0.132779
0.135001
0.137225
0.138808
0.139525
0.139724
0.139252
0.138769
0.138203
0.137617
0.137017
0.136391
0.135773
0.135149
0.13399
0.133226
0.132556
0.132005
0.131635
0.131552
0.131966
0.133131
0.134468
0.135453
0.135876
0.135906
0.135575
0.135052
0.1346
0.134146
0.133688
0.133205
0.132731
0.132237
0.133985
0.133216
0.132534
0.13196
0.131537
0.131333
0.131448
0.131993
0.132674
0.133151
0.133288
0.133167
0.132921
0.132528
0.132169
0.131802
0.131427
0.131025
0.130634
0.13021
0.133982
0.133208
0.132517
0.131925
0.131462
0.131175
0.131107
0.131292
0.131559
0.131693
0.131621
0.131384
0.13112
0.130763
0.130436
0.130111
0.129787
0.129447
0.129122
0.128754
0.13398
0.133201
0.132503
0.131897
0.131405
0.131059
0.130876
0.130848
0.130867
0.130789
0.130578
0.130279
0.129976
0.129639
0.129336
0.12904
0.12875
0.128445
0.128157
0.127819
0.133978
0.133196
0.132492
0.131874
0.131362
0.130973
0.130713
0.130558
0.130429
0.130219
0.129917
0.129568
0.129232
0.128897
0.128597
0.128308
0.12803
0.127743
0.127476
0.127158
0.133976
0.133192
0.132483
0.131857
0.13133
0.13091
0.130599
0.130364
0.130142
0.129855
0.129478
0.12909
0.128729
0.128391
0.128091
0.127808
0.127541
0.127267
0.127017
0.126716
0.133975
0.133189
0.132476
0.131844
0.131305
0.130864
0.130517
0.130239
0.129953
0.129615
0.129196
0.128789
0.128413
0.128072
0.12777
0.12749
0.127227
0.126962
0.126721
0.126429
0.133975
0.133186
0.132471
0.131834
0.131285
0.130829
0.130459
0.130147
0.129828
0.129457
0.129039
0.128619
0.128234
0.12789
0.127586
0.127306
0.127045
0.126783
0.126547
0.126264
0.133974
0.133185
0.132467
0.131827
0.131271
0.130806
0.130422
0.130092
0.129759
0.129376
0.128948
0.128524
0.128134
0.127787
0.12748
0.127199
0.126936
0.126674
0.126439
0.126157
0.133969
0.133173
0.132447
0.131797
0.131229
0.13075
0.130349
0.130006
0.129657
0.12927
0.128833
0.128409
0.128018
0.127672
0.127361
0.127072
0.126804
0.126536
0.126295
0.126011
0.13455
0.132613
0.129084
0.120563
0.0621533
0.0490978
0.134529
0.133702
0.133138
0.132639
0.130236
0.127133
0.103647
0.0922948
0.570728
0.579119
0.622942
0.532063
0.644478
0.556958
0.134095
0.133405
0.132909
0.132644
0.132923
0.134483
0.130442
0.116522
0.464847
0.465582
0.429636
0.384857
0.28386
0.28031
0.274055
0.134054
0.13336
0.13282
0.13253
0.13281
0.1346
0.137012
0.133981
0.0773339
0.0908342
0.1484
0.129022
0.13037
0.131479
0.132212
0.13308
0.134112
0.13576
0.134029
0.13331
0.132729
0.132372
0.13248
0.133839
0.137209
0.142988
0.142822
0.135443
0.130301
0.133373
0.139496
0.140065
0.140879
0.141404
0.14164
0.141487
0.141239
0.140871
0.134013
0.133278
0.132664
0.132239
0.132179
0.13296
0.135774
0.140664
0.144302
0.144955
0.146243
0.147008
0.14638
0.145788
0.145279
0.144773
0.144192
0.143497
0.142756
0.141988
0.134002
0.133256
0.132617
0.132139
0.131941
0.132317
0.134036
0.137771
0.140948
0.142944
0.143912
0.143948
0.143291
0.142716
0.142122
0.141512
0.140857
0.140141
0.139414
0.13868
0.133995
0.133239
0.132583
0.132063
0.131765
0.131864
0.132781
0.135019
0.13727
0.138876
0.139597
0.13979
0.139303
0.138808
0.138235
0.137646
0.137046
0.13642
0.135803
0.135179
0.13399
0.133226
0.132556
0.132005
0.131635
0.131552
0.131967
0.133135
0.13448
0.135472
0.135896
0.135924
0.135591
0.135066
0.134614
0.134163
0.133708
0.133226
0.132753
0.13226
0.133985
0.133216
0.132534
0.13196
0.131537
0.131333
0.131449
0.131994
0.132677
0.133155
0.133293
0.133171
0.132924
0.132532
0.132176
0.131812
0.13144
0.13104
0.130651
0.130229
0.133982
0.133208
0.132517
0.131925
0.131462
0.131175
0.131107
0.131292
0.131559
0.131694
0.131621
0.131385
0.131121
0.130765
0.13044
0.130116
0.129795
0.129455
0.129131
0.128764
0.13398
0.133201
0.132503
0.131897
0.131405
0.131059
0.130876
0.130848
0.130868
0.13079
0.130579
0.130279
0.129976
0.12964
0.129338
0.129044
0.128755
0.128451
0.128164
0.127827
0.133978
0.133196
0.132492
0.131874
0.131362
0.130973
0.130713
0.130558
0.130429
0.13022
0.129917
0.129568
0.129232
0.128898
0.128599
0.128311
0.128034
0.127747
0.12748
0.127163
0.133976
0.133192
0.132483
0.131857
0.13133
0.13091
0.1306
0.130364
0.130142
0.129855
0.129477
0.129091
0.12873
0.128392
0.128092
0.12781
0.127543
0.12727
0.127021
0.126719
0.133975
0.133189
0.132476
0.131844
0.131305
0.130864
0.130517
0.130239
0.129953
0.129615
0.129196
0.128789
0.128413
0.128072
0.12777
0.127491
0.127229
0.126963
0.126723
0.126431
0.133975
0.133186
0.132471
0.131834
0.131285
0.13083
0.130459
0.130147
0.129828
0.129457
0.129039
0.128619
0.128234
0.12789
0.127587
0.127307
0.127047
0.126785
0.126549
0.126265
0.133974
0.133185
0.132467
0.131827
0.131271
0.130806
0.130422
0.130092
0.129759
0.129376
0.128948
0.128524
0.128134
0.127787
0.12748
0.127199
0.126937
0.126675
0.12644
0.126158
0.133969
0.133173
0.132447
0.131797
0.131229
0.13075
0.130349
0.130006
0.129657
0.12927
0.128833
0.128409
0.128018
0.127672
0.127361
0.127072
0.126804
0.126536
0.126295
0.126012
0.13455
0.132613
0.129084
0.120562
0.0621536
0.0490992
0.134529
0.133702
0.133138
0.132639
0.130239
0.127158
0.103707
0.0923177
0.59353
0.726121
0.724239
0.603028
0.672334
0.550959
0.134095
0.133405
0.132909
0.132644
0.132925
0.134501
0.13053
0.116608
0.482921
0.516924
0.491292
0.451524
0.32272
0.315402
0.283348
0.134054
0.13336
0.13282
0.13253
0.132811
0.134609
0.137083
0.13411
0.0773661
0.0909213
0.148796
0.129678
0.13112
0.132463
0.133346
0.134396
0.135292
0.136018
0.134029
0.13331
0.132729
0.132372
0.13248
0.133842
0.137249
0.143116
0.143022
0.135727
0.130676
0.13392
0.14009
0.140643
0.141436
0.141959
0.142184
0.142016
0.141739
0.14133
0.134013
0.133278
0.132664
0.132239
0.132179
0.132961
0.13579
0.140745
0.144458
0.145187
0.146529
0.147327
0.146695
0.146079
0.145536
0.145005
0.144397
0.143675
0.142905
0.142109
0.134002
0.133256
0.132617
0.132139
0.131941
0.132317
0.134041
0.137808
0.141033
0.143077
0.144069
0.144111
0.143443
0.142847
0.142225
0.141589
0.140917
0.14019
0.139454
0.138714
0.133995
0.133239
0.132583
0.132063
0.131765
0.131864
0.132782
0.135031
0.137303
0.13893
0.139658
0.139851
0.139358
0.138854
0.13827
0.137673
0.137068
0.136438
0.13582
0.135196
0.13399
0.133226
0.132556
0.132005
0.131635
0.131552
0.131967
0.133138
0.134489
0.135489
0.135914
0.135941
0.135606
0.135078
0.134623
0.134171
0.133716
0.133235
0.132763
0.132273
0.133985
0.133216
0.132534
0.13196
0.131537
0.131333
0.131449
0.131995
0.132679
0.13316
0.133297
0.133175
0.132928
0.132535
0.132178
0.131815
0.131443
0.131046
0.130659
0.13024
0.133982
0.133208
0.132517
0.131925
0.131462
0.131175
0.131108
0.131292
0.13156
0.131695
0.131622
0.131386
0.131122
0.130766
0.130441
0.130117
0.129797
0.129459
0.129136
0.12877
0.13398
0.133201
0.132503
0.131897
0.131405
0.131059
0.130876
0.130848
0.130868
0.13079
0.130579
0.130279
0.129977
0.129641
0.129339
0.129044
0.128757
0.128454
0.128168
0.127832
0.133978
0.133196
0.132492
0.131874
0.131362
0.130973
0.130714
0.130558
0.130429
0.13022
0.129917
0.129568
0.129233
0.128898
0.1286
0.128311
0.128035
0.127749
0.127483
0.127166
0.133976
0.133192
0.132483
0.131857
0.13133
0.13091
0.1306
0.130364
0.130142
0.129855
0.129477
0.129091
0.12873
0.128392
0.128093
0.127811
0.127544
0.127272
0.127023
0.126721
0.133975
0.133189
0.132476
0.131844
0.131305
0.130864
0.130517
0.130239
0.129953
0.129615
0.129196
0.128789
0.128413
0.128072
0.127771
0.127491
0.127229
0.126964
0.126724
0.126432
0.133975
0.133186
0.132471
0.131834
0.131285
0.13083
0.130459
0.130147
0.129828
0.129457
0.129039
0.128619
0.128234
0.12789
0.127587
0.127307
0.127047
0.126785
0.12655
0.126267
0.133974
0.133185
0.132467
0.131827
0.131271
0.130806
0.130422
0.130092
0.129759
0.129376
0.128948
0.128524
0.128134
0.127787
0.12748
0.127199
0.126937
0.126675
0.12644
0.126159
0.133969
0.133173
0.132447
0.131797
0.131229
0.13075
0.130349
0.130006
0.129657
0.12927
0.128833
0.128409
0.128018
0.127672
0.127361
0.127071
0.126804
0.126536
0.126296
0.126013
0.13455
0.132613
0.129084
0.120562
0.0621536
0.0490993
0.134529
0.133702
0.133138
0.132639
0.130239
0.127163
0.103721
0.092325
0.627695
0.819776
0.822152
0.693219
0.757166
0.607546
0.134095
0.133405
0.132909
0.132644
0.132926
0.134507
0.130561
0.116635
0.487499
0.560387
0.549739
0.513603
0.365222
0.359168
0.315521
0.134054
0.13336
0.13282
0.13253
0.132811
0.134612
0.137111
0.134158
0.0773843
0.090944
0.149481
0.130334
0.131856
0.133292
0.134291
0.135658
0.136776
0.137259
0.134029
0.13331
0.132729
0.132372
0.13248
0.133843
0.137267
0.14317
0.143101
0.135831
0.130806
0.134125
0.140405
0.141007
0.141808
0.14232
0.142551
0.142406
0.142126
0.141706
0.134013
0.133278
0.132664
0.132239
0.132179
0.132962
0.135799
0.140784
0.144533
0.145301
0.146682
0.147517
0.146916
0.146313
0.145752
0.145193
0.144564
0.143823
0.143033
0.142219
0.134002
0.133256
0.132617
0.132139
0.131941
0.132317
0.134044
0.137828
0.14108
0.143153
0.144167
0.14423
0.143566
0.142968
0.142321
0.141661
0.14097
0.140229
0.139484
0.138738
0.133995
0.133239
0.132583
0.132063
0.131765
0.131864
0.132783
0.135038
0.137323
0.138965
0.139701
0.139896
0.139404
0.138897
0.138301
0.137695
0.137082
0.136448
0.135827
0.135202
0.13399
0.133226
0.132556
0.132005
0.131635
0.131552
0.131967
0.13314
0.134495
0.1355
0.135927
0.135954
0.135618
0.135087
0.134627
0.134171
0.133713
0.133233
0.132762
0.132274
0.133985
0.133216
0.132534
0.13196
0.131537
0.131333
0.131449
0.131995
0.13268
0.133162
0.133299
0.133177
0.13293
0.132535
0.132176
0.131811
0.131439
0.131043
0.130657
0.130241
0.133982
0.133208
0.132517
0.131925
0.131462
0.131175
0.131108
0.131292
0.13156
0.131696
0.131622
0.131385
0.131121
0.130764
0.130438
0.130114
0.129793
0.129456
0.129134
0.128771
0.13398
0.133201
0.132503
0.131897
0.131405
0.131059
0.130876
0.130848
0.130868
0.13079
0.130579
0.130279
0.129976
0.12964
0.129337
0.129042
0.128755
0.128453
0.128168
0.127833
0.133978
0.133196
0.132492
0.131874
0.131362
0.130973
0.130714
0.130558
0.130429
0.13022
0.129917
0.129568
0.129232
0.128897
0.128599
0.12831
0.128034
0.127748
0.127483
0.127167
0.133976
0.133192
0.132483
0.131857
0.13133
0.13091
0.1306
0.130364
0.130142
0.129855
0.129477
0.129091
0.12873
0.128391
0.128092
0.12781
0.127543
0.127271
0.127023
0.126722
0.133975
0.133189
0.132476
0.131844
0.131305
0.130864
0.130517
0.130239
0.129953
0.129615
0.129196
0.128789
0.128413
0.128072
0.12777
0.127491
0.127229
0.126964
0.126724
0.126433
0.133975
0.133186
0.132471
0.131834
0.131285
0.13083
0.130459
0.130147
0.129828
0.129457
0.129039
0.128619
0.128234
0.12789
0.127587
0.127307
0.127047
0.126785
0.12655
0.126267
0.133974
0.133185
0.132467
0.131827
0.131271
0.130806
0.130422
0.130092