/*--------------------------------*- C++ -*----------------------------------*\
  =========                 |
  \\      /  F ield         | OpenFOAM: The Open Source CFD Toolbox
   \\    /   O peration     | Website:  https://openfoam.org
    \\  /    A nd           | Version:  10
     \\/     M anipulation  |
\*---------------------------------------------------------------------------*/
FoamFile
{
    format      ascii;
    class       volScalarField;
    location    "2000";
    object      omega;
}
// * * * * * * * * * * * * * * * * * * * * * * * * * * * * * * * * * * * * * //

dimensions      [0 0 -1 0 0 0 0];

internalField   nonuniform List<scalar> 
55398
(
1.75185
1.75808
1.84565
3.79361
4.24421
9.6679
1.70105
1.55977
1.44151
1.34624
1.28711
1.30942
2.17949
5.35875
6.09647
4.65184
4.02401
3.97758
4.09589
3.89876
1.63595
1.51258
1.40635
1.31483
1.23829
1.20301
1.45319
2.36612
15.6273
8.24547
7.39998
6.42064
5.64338
4.61947
3.79545
1.6367
1.51429
1.40881
1.31757
1.24019
1.18689
1.25902
1.54635
2.77545
12.9752
7.82586
4.08369
2.37099
2.15102
2.01357
1.83174
1.69068
1.56125
1.63807
1.5166
1.41182
1.32104
1.24348
1.18299
1.17728
1.32995
1.67601
2.04279
2.48812
2.14429
1.79216
1.36642
1.23355
1.1437
1.07689
1.00271
0.947818
0.898464
1.63931
1.51875
1.41464
1.32431
1.24662
1.18243
1.1472
1.18909
1.23904
1.27511
1.29042
1.19115
1.12425
1.06108
0.995835
0.944437
0.901242
0.856868
0.819732
0.786395
1.64043
1.52068
1.41719
1.32683
1.2497
1.18324
1.13543
1.12405
1.12411
1.11759
1.08561
1.0414
0.996357
0.950166
0.907453
0.869278
0.835213
0.80129
0.771152
0.74284
1.64143
1.52242
1.41949
1.33005
1.25216
1.18543
1.13235
1.09745
1.07217
1.0469
1.01342
0.976642
0.939586
0.901854
0.867216
0.834592
0.804533
0.775161
0.748169
0.722762
1.64144
1.52332
1.4213
1.33279
1.25529
1.18863
1.13187
1.08749
1.05103
1.01737
0.982496
0.947783
0.912911
0.878913
0.846847
0.816995
0.788818
0.761709
0.736157
0.712373
1.64325
1.52545
1.42347
1.33473
1.25754
1.1908
1.13307
1.08459
1.04293
1.00518
0.968867
0.933979
0.900397
0.868008
0.837519
0.808659
0.781418
0.755347
0.73074
0.707359
1.644
1.52678
1.42523
1.33678
1.25974
1.19289
1.13436
1.08391
1.0398
1.00002
0.962727
0.927392
0.894116
0.862366
0.832457
0.803969
0.777326
0.751787
0.727613
0.704541
1.64467
1.52797
1.4268
1.33866
1.26177
1.19469
1.13596
1.08455
1.03918
0.998037
0.959802
0.924218
0.890937
0.859772
0.829761
0.801699
0.775169
0.749963
0.72607
0.703198
1.6453
1.52907
1.42826
1.34038
1.2637
1.19655
1.1376
1.08559
1.03949
0.997456
0.958668
0.922749
0.889284
0.857915
0.828379
0.800487
0.774078
0.749039
0.725296
0.702532
1.64587
1.53009
1.4296
1.34199
1.26581
1.19827
1.13917
1.08683
1.04012
0.997672
0.958386
0.922023
0.888614
0.857208
0.827679
0.799942
0.773626
0.748723
0.725106
0.702436
1.64641
1.53104
1.43086
1.34348
1.26711
1.19996
1.14076
1.08826
1.04117
0.998361
0.958777
0.922434
0.888676
0.857244
0.827749
0.800059
0.773791
0.748959
0.725412
0.702796
1.64692
1.53194
1.43203
1.34486
1.26842
1.20151
1.1423
1.08969
1.0424
0.999347
0.959699
0.923186
0.889334
0.857866
0.828439
0.80068
0.774426
0.749619
0.726115
0.703539
1.64739
1.53278
1.43313
1.34616
1.26996
1.20296
1.14378
1.09116
1.04381
1.00066
0.96093
0.92434
0.89042
0.858903
0.829411
0.801677
0.775409
0.750605
0.727098
0.704523
1.64779
1.53348
1.43403
1.34719
1.27106
1.2041
1.14495
1.09237
1.04498
1.00182
0.962063
0.925463
0.89151
0.859962
0.830477
0.802689
0.776384
0.751543
0.728009
0.705416
1.74422
1.67438
1.62254
2.19972
4.97726
6.70545
1.70089
1.55973
1.44151
1.34431
1.29032
1.31594
2.03904
4.68726
6.40159
5.26752
4.8205
4.65575
4.21291
3.88569
1.63578
1.51241
1.40656
1.31479
1.2381
1.20046
1.43841
2.28978
11.7265
7.78468
6.80321
6.11512
4.23211
4.26522
3.24083
1.63679
1.51431
1.40884
1.3176
1.24041
1.18621
1.25022
1.50316
2.81581
5.32215
10.4127
3.00847
2.42208
2.11931
1.96331
1.79622
1.67811
1.54777
1.63816
1.51663
1.41185
1.32109
1.24352
1.18293
1.17392
1.30481
1.62666
1.95611
2.1989
2.10381
1.54549
1.38087
1.24313
1.14773
1.07727
1.00327
0.945585
0.894171
1.63941
1.51878
1.41467
1.32436
1.24666
1.18257
1.14637
1.17773
1.22679
1.25909
1.23489
1.18631
1.1255
1.05769
0.994918
0.944085
0.901126
0.857015
0.819019
0.78422
1.64052
1.52071
1.41722
1.32721
1.24962
1.18381
1.13533
1.12078
1.11893
1.11215
1.08032
1.03935
0.996003
0.949008
0.908133
0.869856
0.835703
0.802241
0.771071
0.742362
1.64152
1.52245
1.41952
1.33005
1.25242
1.18538
1.13232
1.0965
1.07033
1.04491
1.0116
0.975915
0.939439
0.901609
0.867096
0.834538
0.804515
0.775339
0.748057
0.722389
1.64214
1.52366
1.42132
1.33243
1.25514
1.18869
1.13194
1.08733
1.05044
1.01664
0.981779
0.947378
0.912695
0.878693
0.847067
0.817063
0.788924
0.761864
0.736304
0.712163
1.64325
1.52547
1.42349
1.33475
1.25755
1.19095
1.13302
1.08461
1.04285
1.005
0.96863
0.933835
0.900298
0.867889
0.837585
0.808702
0.781454
0.755386
0.730728
0.707246
1.64399
1.52678
1.42525
1.33681
1.25976
1.19319
1.13438
1.08397
1.04
1.00004
0.962595
0.927162
0.894137
0.862348
0.832531
0.804122
0.777325
0.751789
0.727606
0.704485
1.64467
1.52797
1.42682
1.33868
1.2618
1.19476
1.13612
1.08474
1.0393
0.998106
0.959833
0.924216
0.890846
0.85993
0.829684
0.801677
0.77516
0.749947
0.726057
0.703161
1.64529
1.52907
1.42827
1.34041
1.26372
1.19659
1.13773
1.08577
1.03956
0.997555
0.958712
0.922754
0.889235
0.857888
0.828435
0.800484
0.774087
0.749032
0.725298
0.702524
1.64587
1.53009
1.42961
1.34201
1.26578
1.19836
1.13931
1.087
1.04024
0.997753
0.958424
0.921984
0.888557
0.857188
0.827691
0.79996
0.773651
0.748718
0.725107
0.702436
1.64641
1.53104
1.43087
1.3435
1.26714
1.20003
1.14087
1.0884
1.04128
0.998433
0.958817
0.922454
0.888652
0.857237
0.827761
0.800084
0.773818
0.748952
0.725411
0.702799
1.64691
1.53193
1.43204
1.34487
1.26854
1.20152
1.14235
1.08977
1.04248
0.999399
0.959732
0.923204
0.889305
0.857854
0.828408
0.800718
0.774461
0.74962
0.726115
0.703544
1.64739
1.53278
1.43314
1.34616
1.26997
1.20298
1.14382
1.09121
1.04386
1.00069
0.960953
0.924351
0.890384
0.858885
0.829411
0.801696
0.775427
0.750588
0.727086
0.70452
1.64778
1.53347
1.43404
1.34719
1.27105
1.2041
1.14495
1.09238
1.04501
1.00184
0.96208
0.925473
0.891473
0.859943
0.830504
0.802688
0.776388
0.751518
0.72799
0.705408
1.74305
1.60927
1.54645
1.61882
3.51956
5.32293
1.70087
1.55974
1.44151
1.34231
1.2905
1.28777
1.83609
4.20558
6.92554
6.51373
5.33344
5.05156
4.23879
4.35387
1.63566
1.5124
1.40653
1.31474
1.23818
1.19643
1.40548
2.26151
18.6823
7.75228
6.37079
5.67571
3.75875
3.74674
3.07814
1.63683
1.51433
1.40889
1.3176
1.24042
1.18532
1.24464
1.50122
2.28106
4.58352
9.56219
2.84071
2.38161
2.06296
1.86084
1.70928
1.60507
1.51049
1.63821
1.51665
1.41191
1.32111
1.24347
1.18283
1.17413
1.29919
1.54176
1.78982
1.94696
1.88495
1.47212
1.33804
1.22955
1.14051
1.06841
0.999382
0.941861
0.89318
1.63945
1.51879
1.41473
1.32438
1.24661
1.18271
1.1469
1.1759
1.22006
1.24392
1.21877
1.17318
1.11182
1.04788
0.991887
0.942314
0.898764
0.856357
0.81837
0.784261
1.64056
1.52073
1.41727
1.32733
1.2496
1.18426
1.13574
1.12032
1.11778
1.10957
1.07706
1.03737
0.994991
0.94705
0.90677
0.869292
0.834962
0.802121
0.770717
0.742505
1.64156
1.52247
1.41957
1.33007
1.25246
1.18625
1.1323
1.09634
1.07016
1.04462
1.01122
0.975808
0.939752
0.901632
0.867156
0.834637
0.804365
0.775337
0.747923
0.722457
1.64237
1.52388
1.42148
1.33242
1.25505
1.1887
1.1321
1.08731
1.05035
1.01659
0.981697
0.947094
0.912914
0.878671
0.847163
0.817205
0.788992
0.761977
0.736377
0.712287
1.64327
1.52547
1.42354
1.33477
1.25752
1.19094
1.13314
1.08457
1.04275
1.00496
0.96858
0.933663
0.900488
0.867934
0.837696
0.808837
0.781541
0.75546
0.73075
0.70731
1.64401
1.52678
1.42528
1.33684
1.25975
1.19301
1.13459
1.08408
1.03995
1.00004
0.962559
0.926971
0.894195
0.862331
0.832588
0.804239
0.777417
0.751853
0.727641
0.704548
1.64468
1.52797
1.42686
1.33871
1.26179
1.19486
1.13615
1.08466
1.03926
0.998111
0.959827
0.924228
0.890915
0.859725
0.82977
0.801756
0.775233
0.749984
0.726077
0.703201
1.6453
1.52907
1.4283
1.34043
1.26372
1.19669
1.13775
1.08569
1.03951
0.997554
0.958704
0.922772
0.889272
0.857876
0.82839
0.800483
0.77412
0.749044
0.725312
0.702558
1.64588
1.53009
1.42965
1.34205
1.26568
1.19847
1.13935
1.08694
1.04023
0.99776
0.95842
0.922152
0.888505
0.857333
0.827567
0.799905
0.773658
0.748713
0.725115
0.702461
1.64642
1.53104
1.4309
1.34353
1.26723
1.20005
1.14087
1.08834
1.04127
0.998435
0.958812
0.922459
0.888644
0.857232
0.827748
0.800098
0.773871
0.748975
0.725438
0.702831
1.64692
1.53194
1.43207
1.34491
1.26864
1.20155
1.14235
1.08972
1.04246
0.999396
0.959727
0.923206
0.889286
0.857839
0.828374
0.800726
0.774509
0.749641
0.726142
0.703571
1.6474
1.53278
1.43317
1.34619
1.27002
1.203
1.14383
1.09118
1.04385
1.00069
0.960954
0.924355
0.89036
0.858865
0.829377
0.801708
0.775472
0.750599
0.727103
0.704535
1.6478
1.53347
1.43406
1.34722
1.27108
1.20412
1.14496
1.09236
1.045
1.00184
0.962085
0.92548
0.891447
0.859922
0.830526
0.802684
0.776414
0.751513
0.727995
0.705411
1.74302
1.60313
1.51554
1.51607
3.10078
5.17413
1.70086
1.55974
1.44148
1.34089
1.28094
1.26524
1.73556
4.82562
8.1994
7.34376
6.13468
5.62359
4.88549
4.50765
1.63562
1.51237
1.4065
1.31468
1.23801
1.19347
1.39264
2.34589
21.2961
7.71459
5.69139
4.71995
3.11458
3.18337
2.70891
1.63685
1.51434
1.40891
1.3176
1.2404
1.18459
1.23985
1.51139
2.3024
4.39158
10.4499
2.74989
2.30224
1.9814
1.75596
1.61068
1.50515
1.42169
1.63822
1.51666
1.41193
1.32113
1.24346
1.18267
1.17308
1.29971
1.53524
1.74737
1.85671
1.75044
1.41081
1.30611
1.20942
1.12624
1.05534
0.992764
0.937309
0.889303
1.63946
1.5188
1.41475
1.3244
1.24661
1.18274
1.14684
1.17562
1.21725
1.2357
1.20872
1.1631
1.10004
1.04231
0.988386
0.93967
0.895894
0.855471
0.818132
0.784094
1.64057
1.52074
1.41729
1.32737
1.24962
1.18445
1.1359
1.12026
1.1169
1.10735
1.07462
1.03507
0.991305
0.945045
0.905669
0.86853
0.834064
0.801713
0.771118
0.742772
1.64157
1.52248
1.41959
1.3301
1.25249
1.18653
1.13244
1.09637
1.06998
1.04418
1.01076
0.975507
0.938567
0.9012
0.867229
0.83477
0.804322
0.77549
0.748238
0.722673
1.64244
1.52399
1.42159
1.33248
1.25506
1.18875
1.13217
1.08735
1.05031
1.01651
0.981604
0.94697
0.912876
0.878422
0.847199
0.8173
0.789051
0.762144
0.736618
0.712479
1.64327
1.52548
1.42356
1.33479
1.25753
1.19095
1.13318
1.08459
1.04272
1.00492
0.968535
0.933398
0.900517
0.867958
0.837862
0.809014
0.781686
0.755632
0.730916
0.707432
1.64401
1.52678
1.42529
1.33685
1.25975
1.19297
1.13462
1.08412
1.03995
1.00004
0.962544
0.927066
0.894123
0.862239
0.83263
0.804323
0.777511
0.751971
0.727746
0.704639
1.64468
1.52797
1.42687
1.33873
1.26179
1.19489
1.13618
1.08466
1.03925
0.998103
0.95982
0.924231
0.890908
0.859392
0.829915
0.801889
0.775354
0.750097
0.726155
0.703265
1.64531
1.52907
1.42831
1.34045
1.26373
1.19672
1.13777
1.08568
1.03949
0.997542
0.958694
0.922772
0.889267
0.857796
0.828386
0.800552
0.77419
0.74911
0.725349
0.702596
1.64588
1.53009
1.42966
1.34206
1.26567
1.19849
1.13937
1.08694
1.04022
0.997755
0.958417
0.922197
0.888518
0.857322
0.827539
0.799906
0.773682
0.748739
0.72512
0.702476
1.64642
1.53104
1.43091
1.34355
1.26728
1.20008
1.14088
1.08832
1.04125
0.998428
0.958809
0.922457
0.888652
0.857206
0.827676
0.800085
0.773898
0.749007
0.725449
0.702852
1.64693
1.53194
1.43208
1.34492
1.26868
1.20158
1.14236
1.08971
1.04245
0.999387
0.959722
0.923202
0.889296
0.857827
0.828302
0.800707
0.774532
0.749668
0.726147
0.703588
1.6474
1.53278
1.43318
1.34621
1.27004
1.20302
1.14384
1.09118
1.04385
1.00069
0.960955
0.924356
0.890376
0.858862
0.829315
0.801699
0.7755
0.750626
0.727108
0.704547
1.6478
1.53348
1.43407
1.34723
1.2711
1.20413
1.14497
1.09236
1.045
1.00184
0.962086
0.925482
0.891465
0.859944
0.830514
0.802671
0.776434
0.751529
0.727989
0.705411
1.74302
1.60284
1.51155
1.49706
2.97525
5.09197
1.70086
1.55974
1.44148
1.34037
1.27494
1.24963
1.6935
4.99914
9.89242
8.0086
6.35347
5.18481
4.88263
4.24055
1.6356
1.51235
1.40648
1.31464
1.23779
1.19146
1.38474
2.39426
19.7202
7.30474
5.02471
3.87603
2.58744
2.60612
2.25347
1.63685
1.51435
1.40891
1.3176
1.24037
1.18405
1.23642
1.51879
2.36588
4.5399
10.7756
2.72796
2.2547
1.92091
1.68346
1.52498
1.40898
1.32436
1.63822
1.51666
1.41193
1.32113
1.24346
1.18255
1.17194
1.30124
1.54611
1.76048
1.85818
1.72638
1.38547
1.28172
1.18892
1.10972
1.04147
0.982196
0.92913
0.882552
1.63946
1.5188
1.41475
1.3244
1.24661
1.18273
1.14657
1.1758
1.2177
1.23461
1.20554
1.15832
1.09376
1.03695
0.984213
0.936399
0.893065
0.853469
0.816828
0.78323
1.64057
1.52074
1.4173
1.32739
1.24964
1.18451
1.13592
1.12028
1.11682
1.10655
1.07358
1.03353
0.987924
0.945413
0.905719
0.868443
0.833806
0.80146
0.771096
0.742832
1.64157
1.52248
1.4196
1.3301
1.2525
1.18662
1.13252
1.09643
1.06997
1.04393
1.01055
0.975253
0.937554
0.901639
0.86764
0.835136
0.804576
0.775709
0.74848
0.722891
1.64246
1.52403
1.42164
1.33252
1.25509
1.18879
1.13222
1.08739
1.05033
1.01646
0.981592
0.946935
0.912879
0.878523
0.847345
0.817456
0.789185
0.762289
0.736788
0.712646
1.64327
1.52548
1.42357
1.33481
1.25754
1.19096
1.13321
1.08462
1.04273
1.0049
0.968535
0.933313
0.900416
0.868085
0.838032
0.8092
0.781863
0.755806
0.731083
0.707574
1.64401
1.52678
1.42529
1.33686
1.25976
1.19296
1.13462
1.08414
1.03996
1.00004
0.962549
0.927098
0.894095
0.862288
0.832696
0.804403
0.777598
0.752066
0.727841
0.704731
1.64468
1.52797
1.42687
1.33873
1.2618
1.1949
1.13619
1.08467
1.03925
0.998098
0.959821
0.924232
0.890895
0.859348
0.829957
0.801966
0.775446
0.750193
0.726243
0.703341
1.64531
1.52907
1.42832
1.34046
1.26374
1.19674
1.13779
1.08569
1.03949
0.997536
0.958691
0.922771
0.889259
0.857776
0.828411
0.800598
0.774244
0.749167
0.725398
0.70264
1.64588
1.53009
1.42966
1.34207
1.26567
1.19849
1.13938
1.08694
1.04022
0.997752
0.958415
0.922208
0.888532
0.857124
0.82765
0.799984
0.773741
0.748788
0.725154
0.702504
1.64642
1.53105
1.43091
1.34356
1.26729
1.20009
1.14089
1.08833
1.04125
0.998426
0.958807
0.922453
0.88866
0.857182
0.827696
0.800102
0.773919
0.749031
0.725468
0.702872
1.64693
1.53194
1.43208
1.34493
1.2687
1.2016
1.14238
1.08972
1.04245
0.999385
0.95972
0.923198
0.889311
0.857815
0.828305
0.800711
0.774542
0.749683
0.726159
0.7036
1.6474
1.53278
1.43318
1.34621
1.27005
1.20304
1.14385
1.09119
1.04385
1.00069
0.960957
0.924357
0.8904
0.858859
0.829309
0.801698
0.775508
0.750641
0.727119
0.704558
1.6478
1.53348
1.43408
1.34724
1.27111
1.20415
1.14498
1.09237
1.045
1.00184
0.962086
0.925482
0.891495
0.859998
0.830502
0.802666
0.776437
0.751536
0.727992
0.705414
1.74302
1.60283
1.51127
1.49486
2.9556
5.06184
1.70086
1.55974
1.44148
1.34024
1.27289
1.24249
1.67462
4.95868
9.35867
8.17458
6.09075
4.70533
4.4124
3.6355
1.6356
1.51234
1.40646
1.31461
1.23765
1.1903
1.37935
2.38874
15.5021
6.95934
4.7067
3.51037
2.33645
2.27233
1.93284
1.63685
1.51435
1.40891
1.3176
1.24035
1.18372
1.23409
1.51721
2.37844
4.60784
10.6514
2.72735
2.23553
1.88948
1.64331
1.47354
1.34561
1.25167
1.63822
1.51666
1.41193
1.32113
1.24346
1.18247
1.17106
1.30097
1.55025
1.77229
1.87398
1.73488
1.38116
1.27238
1.17729
1.09776
1.0301
0.972082
0.920452
0.874972
1.63946
1.5188
1.41475
1.3244
1.24662
1.18272
1.14631
1.17563
1.21811
1.23527
1.20533
1.15694
1.09116
1.03391
0.981277
0.933729
0.890651
0.851405
0.815157
0.781926
1.64057
1.52074
1.4173
1.32739
1.24965
1.18453
1.13588
1.12022
1.11685
1.10643
1.07329
1.03282
0.986611
0.944693
0.905367
0.868271
0.83368
0.801327
0.771019
0.742803
1.64157
1.52248
1.4196
1.33011
1.25251
1.18665
1.13255
1.09643
1.06999
1.04384
1.01047
0.975135
0.937172
0.901543
0.867741
0.835344
0.804804
0.775925
0.748691
0.723091
1.64246
1.52404
1.42167
1.33255
1.25512
1.18882
1.13226
1.08742
1.05037
1.01645
0.981608
0.946951
0.912864
0.878595
0.84748
0.817616
0.789343
0.762436
0.736934
0.712789
1.64327
1.52548
1.42357
1.33481
1.25755
1.19097
1.13323
1.08464
1.04276
1.00491
0.968553
0.933304
0.900382
0.868122
0.838135
0.809338
0.782012
0.755956
0.731231
0.707713
1.64401
1.52678
1.42529
1.33686
1.25976
1.19296
1.13463
1.08416
1.03998
1.00004
0.962561
0.927124
0.894104
0.862318
0.832753
0.804473
0.777674
0.752145
0.727922
0.70481
1.64468
1.52797
1.42687
1.33873
1.2618
1.1949
1.1362
1.08468
1.03926
0.9981
0.959827
0.924242
0.890897
0.859344
0.829983
0.802014
0.77551
0.750264
0.726316
0.70341
1.64531
1.52907
1.42832
1.34046
1.26374
1.19674
1.1378
1.0857
1.0395
0.997538
0.958694
0.922775
0.88926
0.857769
0.828431
0.80063
0.774283
0.74921
0.725441
0.702682
1.64589
1.53009
1.42966
1.34207
1.26568
1.1985
1.13938
1.08695
1.04023
0.997753
0.958416
0.922214
0.88854
0.857066
0.827667
0.800021
0.773784
0.748831
0.725192
0.702538
1.64642
1.53105
1.43092
1.34356
1.2673
1.2001
1.1409
1.08834
1.04126
0.998428
0.958808
0.922453
0.888664
0.857158
0.827715
0.800123
0.77394
0.749052
0.725488
0.702891
1.64693
1.53194
1.43209
1.34493
1.2687
1.20161
1.14239
1.08973
1.04246
0.999388
0.959722
0.923198
0.889316
0.857789
0.828321
0.800726
0.774556
0.749697
0.726172
0.703613
1.6474
1.53278
1.43319
1.34622
1.27006
1.20305
1.14386
1.0912
1.04386
1.00069
0.96096
0.924359
0.890409
0.858833
0.829325
0.80171
0.775519
0.750652
0.72713
0.704569
1.6478
1.53348
1.43408
1.34724
1.27112
1.20415
1.14498
1.09237
1.045
1.00184
0.962087
0.925483
0.891504
0.860039
0.83051
0.802672
0.776443
0.751543
0.727997
0.705418
1.74302
1.60283
1.51127
1.49472
2.95374
5.05724
1.70086
1.55975
1.44148
1.34021
1.27239
1.24017
1.66771
4.94236
7.83712
7.60759
5.80647
4.51677
4.15744
3.35621
1.63559
1.51234
1.40645
1.3146
1.23759
1.18976
1.37659
2.38121
13.3451
7.05743
4.79435
3.53138
2.293
2.17535
1.787
1.63685
1.51435
1.40891
1.31759
1.24033
1.18353
1.23276
1.51421
2.37301
4.5894
10.6085
2.7384
2.23639
1.88092
1.62774
1.45062
1.31388
1.21031
1.63822
1.51666
1.41193
1.32113
1.24346
1.18242
1.17052
1.3
1.54921
1.77318
1.87821
1.74087
1.38224
1.27044
1.17273
1.09153
1.02308
0.964878
0.913533
0.868442
1.63946
1.5188
1.41475
1.3244
1.24662
1.18271
1.14612
1.17525
1.21787
1.23534
1.20536
1.15659
1.09022
1.03248
0.979655
0.932048
0.88899
0.84981
0.813687
0.780622
1.64057
1.52073
1.4173
1.32739
1.24965
1.18454
1.13584
1.1201
1.11674
1.10635
1.07319
1.03252
0.986067
0.944143
0.90496
0.867995
0.83349
0.801179
0.770907
0.74273
1.64157
1.52248
1.4196
1.3301
1.25251
1.18666
1.13255
1.09641
1.06997
1.04379
1.01042
0.975075
0.937021
0.901419
0.867705
0.835386
0.804902
0.776049
0.748829
0.723238
1.64246
1.52405
1.42167
1.33256
1.25513
1.18884
1.13228
1.08744
1.05039
1.01644
0.981615
0.946967
0.912867
0.878627
0.847558
0.817726
0.789468
0.762562
0.737058
0.712911
1.64327
1.52548
1.42357
1.33482
1.25755
1.19098
1.13324
1.08466
1.04279
1.00492
0.96857
0.93332
0.900386
0.868142
0.838194
0.809425
0.782117
0.756068
0.731345
0.707829
1.64401
1.52678
1.42529
1.33686
1.25976
1.19296
1.13464
1.08416
1.04
1.00005
0.962573
0.927147
0.894124
0.862343
0.832799
0.804529
0.777736
0.752209
0.727986
0.704875
1.64468
1.52797
1.42687
1.33873
1.2618
1.1949
1.13621
1.08469
1.03927
0.998107
0.959834
0.924254
0.890908
0.859351
0.830008
0.80205
0.775554
0.750316
0.726372
0.703467
1.64531
1.52907
1.42832
1.34046
1.26374
1.19675
1.13781
1.08571
1.03951
0.997543
0.958699
0.922783
0.889267
0.85777
0.828449
0.800654
0.774313
0.749243
0.725476
0.702717
1.64588
1.53009
1.42966
1.34208
1.26568
1.1985
1.13939
1.08695
1.04023
0.997757
0.958419
0.922219
0.888547
0.857049
0.827674
0.80004
0.773811
0.748861
0.725224
0.702568
1.64642
1.53105
1.43092
1.34356
1.2673
1.20011
1.14091
1.08834
1.04127
0.998432
0.958811
0.922457
0.888667
0.857145
0.827728
0.800139
0.773958
0.749071
0.725506
0.702908
1.64693
1.53194
1.43209
1.34493
1.26871
1.20161
1.1424
1.08973
1.04246
0.999393
0.959726
0.923201
0.88932
0.857773
0.828334
0.80074
0.774571
0.749712
0.726185
0.703625
1.6474
1.53278
1.43319
1.34622
1.27006
1.20305
1.14387
1.0912
1.04386
1.0007
0.960964
0.924362
0.890413
0.858816
0.829339
0.801723
0.775532
0.750664
0.727141
0.70458
1.6478
1.53348
1.43408
1.34724
1.27112
1.20416
1.14499
1.09238
1.04501
1.00184
0.962089
0.925484
0.891508
0.860065
0.830529
0.802687
0.776455
0.751553
0.728005
0.705425
1.74302
1.60283
1.51128
1.49473
2.9536
5.05697
1.70086
1.55975
1.44148
1.34021
1.27229
1.23959
1.66586
4.94162
7.15089
7.06402
5.69499
4.58898
4.15919
3.31242
1.63559
1.51233
1.40645
1.31459
1.23756
1.18954
1.37551
2.37917
11.7876
7.3469
5.04456
3.70719
2.34465
2.19928
1.75418
1.63685
1.51435
1.40891
1.31759
1.24032
1.18345
1.23214
1.51278
2.37019
4.58557
10.6011
2.75376
2.24735
1.88608
1.62771
1.44582
1.30332
1.19244
1.63822
1.51666
1.41193
1.32113
1.24346
1.18239
1.17023
1.29932
1.54794
1.77174
1.87747
1.74161
1.38306
1.27037
1.17152
1.08921
1.01986
0.960968
0.909227
0.863933
1.63946
1.5188
1.41475
1.3244
1.24662
1.1827
1.14601
1.17494
1.21746
1.23502
1.20515
1.15635
1.0898
1.0318
0.978815
0.931113
0.887999
0.848774
0.812631
0.779586
1.64057
1.52073
1.41729
1.32739
1.24965
1.18454
1.13581
1.11998
1.11658
1.1062
1.07307
1.03233
0.98581
0.943813
0.904628
0.867712
0.833262
0.800991
0.770756
0.742614
1.64156
1.52248
1.4196
1.3301
1.25251
1.18667
1.13255
1.09638
1.06992
1.04373
1.01036
0.975017
0.93694
0.901328
0.867632
0.835346
0.804897
0.776074
0.748879
0.723309
1.64246
1.52405
1.42168
1.33257
1.25514
1.18885
1.13229
1.08744
1.05039
1.01644
0.98161
0.946969
0.91287
0.878637
0.847585
0.817774
0.789533
0.762639
0.737142
0.713001
1.64327
1.52548
1.42357
1.33482
1.25756
1.19099
1.13325
1.08467
1.0428
1.00493
0.968581
0.933335
0.9004
0.868158
0.838222
0.809469
0.782174
0.756136
0.731421
0.707914
1.64401
1.52678
1.42529
1.33686
1.25976
1.19297
1.13464
1.08417
1.04001
1.00007
0.962583
0.927163
0.894142
0.862364
0.832827
0.804564
0.777777
0.752253
0.728034
0.704924
1.64468
1.52797
1.42687
1.33873
1.2618
1.19491
1.13621
1.08469
1.03928
0.998115
0.959841
0.924264
0.890919
0.859362
0.830023
0.802071
0.775582
0.75035
0.72641
0.703509
1.64531
1.52907
1.42832
1.34046
1.26374
1.19675
1.13781
1.08571
1.03951
0.997548
0.958704
0.92279
0.889275
0.857776
0.82846
0.800669
0.774332
0.749265
0.7255
0.702743
1.64588
1.53009
1.42966
1.34208
1.26568
1.1985
1.13939
1.08695
1.04023
0.99776
0.958422
0.922223
0.888552
0.857049
0.827678
0.800049
0.773826
0.74888
0.725245
0.702592
1.64642
1.53105
1.43092
1.34356
1.26731
1.20011
1.14091
1.08835
1.04127
0.998435
0.958815
0.92246
0.888671
0.857144
0.827732
0.800147
0.773969
0.749083
0.725519
0.702923
1.64693
1.53194
1.43209
1.34493
1.26871
1.20161
1.1424
1.08974
1.04247
0.999397
0.95973
0.923205
0.889323
0.857771
0.828337
0.800747
0.77458
0.749723
0.726197
0.703637
1.6474
1.53278
1.43319
1.34622
1.27006
1.20305
1.14387
1.0912
1.04387
1.0007
0.960967
0.924365
0.890417
0.858813
0.829342
0.80173
0.77554
0.750673
0.72715
0.704589
1.6478
1.53348
1.43408
1.34725
1.27112
1.20416
1.14499
1.09238
1.04501
1.00185
0.962091
0.925487
0.891511
0.860074
0.830542
0.8027
0.776468
0.751564
0.728016
0.705434
1.74302
1.60283
1.51128
1.49474
2.95356
5.05703
1.70086
1.55975
1.44148
1.34021
1.27228
1.23947
1.66548
4.94202
6.91313
6.8661
5.74347
4.78061
4.32345
3.40695
1.63559
1.51233
1.40645
1.31459
1.23755
1.18946
1.37515
2.37879
10.3656
7.58856
5.27597
3.8918
2.42209
2.26325
1.77521
1.63685
1.51435
1.40891
1.31759
1.24032
1.18341
1.23188
1.5123
2.36947
4.58798
10.6175
2.7643
2.25938
1.89673
1.63598
1.45132
1.30531
1.18933
1.63822
1.51666
1.41193
1.32113
1.24346
1.18238
1.17009
1.29898
1.54737
1.77102
1.8769
1.74121
1.3832
1.27048
1.17162
1.08891
1.01908
0.95959
0.907286
0.861519
1.63946
1.5188
1.41474
1.3244
1.24662
1.1827
1.14596
1.17475
1.21718
1.2347
1.20487
1.15609
1.08954
1.03147
0.978418
0.930654
0.88748
0.848182
0.81197
0.778876
1.64057
1.52073
1.41729
1.32739
1.24965
1.18454
1.13579
1.11991
1.11644
1.10604
1.07293
1.03219
0.98567
0.943632
0.904398
0.867453
0.833009
0.800762
0.770555
0.742446
1.64156
1.52247
1.41959
1.3301
1.25251
1.18667
1.13255
1.09636
1.06986
1.04367
1.0103
0.974951
0.936879
0.901259
0.867552
0.83527
0.804835
0.776032
0.748859
0.723312
1.64246
1.52405
1.42168
1.33257
1.25514
1.18885
1.1323
1.08744
1.05038
1.01643
0.981594
0.946952
0.912857
0.878626
0.847571
0.817765
0.789536
0.762656
0.737174
0.713047
1.64327
1.52548
1.42357
1.33482
1.25756
1.19099
1.13326
1.08467
1.0428
1.00494
0.968584
0.933339
0.900404
0.868161
0.838224
0.809474
0.782188
0.75616
0.731456
0.707961
1.64401
1.52678
1.42529
1.33686
1.25976
1.19297
1.13464
1.08417
1.04001
1.00007
0.962589
0.927169
0.894151
0.862373
0.832835
0.804575
0.777792
0.752274
0.72806
0.704956
1.64468
1.52797
1.42687
1.33873
1.2618
1.19491
1.13621
1.08469
1.03928
0.99812
0.959847
0.92427
0.890925
0.859367
0.830028
0.802078
0.775592
0.750365
0.726431
0.703536
1.64531
1.52907
1.42832
1.34046
1.26374
1.19675
1.13781
1.08571
1.03951
0.997552
0.958708
0.922794
0.889279
0.85778
0.828464
0.800675
0.774341
0.749277
0.725515
0.702761
1.64588
1.53009
1.42966
1.34207
1.26568
1.1985
1.13939
1.08696
1.04024
0.997763
0.958425
0.922226
0.888556
0.857051
0.827679
0.800051
0.773831
0.748889
0.725258
0.702607
1.64642
1.53105
1.43092
1.34356
1.26731
1.20011
1.14091
1.08835
1.04127
0.998438
0.958817
0.922463
0.888674
0.857146
0.827733
0.80015
0.773974
0.74909
0.725528
0.702933
1.64693
1.53194
1.43209
1.34493
1.26871
1.20162
1.1424
1.08974
1.04247
0.9994
0.959733
0.923207
0.889326
0.857772
0.828338
0.80075
0.774585
0.749729
0.726205
0.703646
1.6474
1.53278
1.43319
1.34622
1.27006
1.20305
1.14387
1.09121
1.04387
1.00071
0.96097
0.924368
0.89042
0.858815
0.829344
0.801733
0.775544
0.750679
0.727157
0.704597
1.6478
1.53348
1.43408
1.34725
1.27112
1.20416
1.14499
1.09238
1.04501
1.00185
0.962093
0.925488
0.891513
0.860077
0.830548
0.802708
0.776476
0.751574
0.728025
0.705444
1.74302
1.60283
1.51128
1.49474
2.95355
5.05708
1.70086
1.55975
1.44148
1.34021
1.27228
1.23945
1.66541
4.94204
6.89384
6.9582
5.88566
4.99266
4.50417
3.54411
1.63559
1.51233
1.40645
1.31459
1.23755
1.18944
1.37503
2.37869
11.2714
7.82594
5.47712
4.05202
2.50358
2.33714
1.81773
1.63685
1.51435
1.40891
1.31759
1.24032
1.18339
1.23179
1.51214
2.36926
4.58972
10.6556
2.77401
2.2734
1.9118
1.64957
1.4629
1.31458
1.19495
1.63822
1.51666
1.41193
1.32112
1.24346
1.18237
1.17003
1.29883
1.54715
1.77076
1.8768
1.74104
1.38316
1.27062
1.17227
1.0897
1.01969
0.959859
0.907038
0.860759
1.63945
1.5188
1.41474
1.3244
1.24662
1.1827
1.14593
1.17466
1.21702
1.23449
1.20466
1.15588
1.0894
1.03136
0.978308
0.9305
0.887273
0.847904
0.811614
0.778451
1.64057
1.52073
1.41729
1.32739
1.24965
1.18454
1.13578
1.11986
1.11635
1.10593
1.0728
1.0321
0.985601
0.943566
0.904257
0.867263
0.832799
0.800552
0.770356
0.742265
1.64156
1.52247
1.41959
1.3301
1.25251
1.18667
1.13255
1.09635
1.06982
1.04362
1.01024
0.974882
0.936826
0.901202
0.867465
0.83517
0.804736
0.775946
0.748791
0.723265
1.64246
1.52405
1.42168
1.33257
1.25514
1.18886
1.1323
1.08744
1.05036
1.01641
0.98157
0.946922
0.912829
0.878593
0.847522
0.817708
0.789483
0.762617
0.737153
0.713045
1.64327
1.52547
1.42357
1.33482
1.25756
1.19099
1.13326
1.08468
1.0428
1.00493
0.968577
0.933329
0.900393
0.868146
0.838199
0.809444
0.782161
0.756143
0.731452
0.707971
1.64401
1.52678
1.42529
1.33686
1.25976
1.19297
1.13464
1.08418
1.04001
1.00007
0.962589
0.927166
0.894145
0.862365
0.832823
0.804561
0.77778
0.752269
0.728063
0.704967
1.64468
1.52797
1.42687
1.33873
1.2618
1.19491
1.13621
1.0847
1.03928
0.998121
0.959848
0.924269
0.890923
0.859363
0.830021
0.802069
0.775585
0.750363
0.726436
0.703547
1.64531
1.52907
1.42832
1.34046
1.26374
1.19675
1.13781
1.08571
1.03951
0.997553
0.958709
0.922794
0.889279
0.857778
0.82846
0.80067
0.774338
0.749277
0.72552
0.70277
1.64588
1.53009
1.42966
1.34207
1.26568
1.1985
1.13939
1.08696
1.04024
0.997763
0.958425
0.922226
0.888556
0.85705
0.827676
0.800048
0.773829
0.74889
0.725262
0.702615
1.64642
1.53105
1.43092
1.34356
1.26731
1.20011
1.14091
1.08835
1.04127
0.998439
0.958819
0.922464
0.888675
0.857146
0.827732
0.800148
0.773973
0.749091
0.725531
0.702938
1.64693
1.53194
1.43209
1.34493
1.26871
1.20162
1.1424
1.08974
1.04247
0.999402
0.959735
0.923209
0.889328
0.857773
0.828338
0.800749
0.774585
0.74973
0.726209
0.703651
1.6474
1.53278
1.43319
1.34622
1.27006
1.20305
1.14387
1.09121
1.04387
1.00071
0.960972
0.92437
0.890422
0.858815
0.829344
0.801733
0.775545
0.750681
0.727161
0.704601
1.6478
1.53348
1.43408
1.34725
1.27112
1.20416
1.14499
1.09238
1.04501
1.00185
0.962095
0.92549
0.891514
0.860079
0.83055
0.802711
0.776481
0.751579
0.728032
0.705451
1.74302
1.60283
1.51128
1.49475
2.95352
5.05705
1.70086
1.55975
1.44148
1.34021
1.27228
1.23944
1.66541
4.94202
6.73123
6.77903
5.8952
5.14686
4.66961
3.67582
1.63559
1.51233
1.40645
1.31459
1.23755
1.18943
1.375
2.37864
11.1921
8.0435
5.69398
4.22322
2.58766
2.41588
1.87171
1.63685
1.51435
1.4089
1.31759
1.24032
1.18339
1.23175
1.51208
2.36916
4.59097
10.7023
2.7708
2.28096
1.92626
1.66631
1.47955
1.32998
1.20733
1.63822
1.51666
1.41193
1.32112
1.24346
1.18237
1.17001
1.29877
1.54704
1.77066
1.87685
1.74104
1.383
1.27085
1.17327
1.09112
1.02122
0.961206
0.90796
0.861209
1.63945
1.5188
1.41474
1.3244
1.24662
1.1827
1.14592
1.17461
1.21693
1.23436
1.20452
1.15572
1.08941
1.03152
0.978515
0.930681
0.88739
0.847923
0.811535
0.77828
1.64057
1.52073
1.41729
1.32739
1.24965
1.18454
1.13578
1.11984
1.11629
1.10585
1.0727
1.03205
0.985585
0.943563
0.904185
0.867125
0.832623
0.800365
0.770174
0.74209
1.64156
1.52247
1.41959
1.3301
1.25251
1.18667
1.13255
1.09633
1.06979
1.04357
1.01018
0.974813
0.936779
0.901156
0.867374
0.835049
0.804606
0.775825
0.748689
0.723181
1.64246
1.52405
1.42168
1.33257
1.25514
1.18886
1.1323
1.08744
1.05035
1.01639
0.981537
0.946877
0.912783
0.878538
0.84744
0.817608
0.78938
0.762527
0.737083
0.712997
1.64327
1.52547
1.42357
1.33482
1.25756
1.19099
1.13326
1.08468
1.04279
1.00492
0.968561
0.933307
0.900365
0.868108
0.838145
0.80938
0.782097
0.756089
0.731413
0.707946
1.64401
1.52678
1.42529
1.33686
1.25976
1.19297
1.13464
1.08418
1.04001
1.00007
0.962581
0.927152
0.894126
0.862339
0.832788
0.80452
0.777741
0.752237
0.728041
0.704956
1.64468
1.52797
1.42687
1.33873
1.2618
1.19491
1.13621
1.0847
1.03928
0.998119
0.959844
0.924262
0.890913
0.859347
0.829999
0.802043
0.77556
0.750343
0.726423