/*--------------------------------*- C++ -*----------------------------------*\
  =========                 |
  \\      /  F ield         | OpenFOAM: The Open Source CFD Toolbox
   \\    /   O peration     | Website:  https://openfoam.org
    \\  /    A nd           | Version:  10
     \\/     M anipulation  |
\*---------------------------------------------------------------------------*/
FoamFile
{
    format      ascii;
    class       volScalarField;
    location    "2000";
    object      p;
}
// * * * * * * * * * * * * * * * * * * * * * * * * * * * * * * * * * * * * * //

dimensions      [0 2 -2 0 0 0 0];

internalField   nonuniform List<scalar> 
55398
(
70.7283
58.1109
65.0383
67.9468
74.6672
89.8157
62.8701
58.3872
62.2878
66.0865
72.9828
86.3475
105.617
131.423
-59.9235
-42.594
-23.2737
-10.1177
-2.62114
1.5028
58.6429
57.3222
59.5412
63.342
68.5537
76.2789
80.392
69.5227
-62.977
-58.1632
-40.4024
-22.062
-10.6899
-4.60172
-0.607256
56.1857
55.2808
56.5027
58.9915
61.5446
62.9518
55.6788
28.5819
-128.563
-214.764
-98.6801
-70.2517
-54.0499
-35.8772
-20.0945
-9.37901
-6.16349
-1.18892
53.5821
52.8963
53.2734
54.2435
54.2304
50.8311
36.7191
-13.6186
-112.252
-187.606
-234.855
-178.048
-106.251
-70.7629
-53.6617
-36.9714
-22.0853
-11.7041
-7.17824
-2.10725
50.9349
50.317
49.9402
49.4797
47.2976
40.5481
23.3881
-21.9791
-108.86
-160.913
-184.012
-144.435
-94.8394
-70.0765
-53.5017
-37.9314
-23.8413
-13.6078
-8.01835
-2.81624
48.2887
47.6429
46.6081
44.8881
40.9289
32.0608
13.4042
-24.8103
-90.3177
-135.394
-148.665
-128.558
-92.0251
-68.8116
-53.3187
-38.6311
-25.2855
-15.1963
-8.7565
-3.32027
45.6907
44.9704
43.3726
40.601
35.2522
25.1077
6.27984
-26.6035
-77.8511
-115.972
-128.546
-115.858
-88.6716
-67.359
-52.5657
-38.8719
-26.2935
-16.4153
-9.33915
-3.68408
43.1897
42.3461
40.273
36.6757
30.3693
19.4922
1.07276
-27.6236
-68.3382
-100.534
-112.53
-104.669
-84.1192
-65.456
-51.516
-38.9042
-27.0393
-17.4045
-9.83183
-3.97914
40.8434
39.8616
37.3952
33.1528
26.1795
14.9374
-2.63185
-28.0167
-61.1456
-88.3106
-99.5673
-95.1416
-79.7714
-63.7262
-50.694
-38.8807
-27.6209
-18.1798
-10.2317
-4.18199
38.6837
37.5929
34.8151
30.0785
22.6304
11.291
-5.41633
-28.0755
-55.6294
-78.6785
-89.2163
-87.1844
-75.5762
-61.8513
-49.6969
-38.5944
-27.9005
-18.6894
-10.5012
-4.32438
36.7325
35.5496
32.5258
27.4197
19.6654
8.36157
-7.43339
-27.8418
-51.3234
-71.1307
-80.9802
-80.4967
-71.7356
-60.0919
-48.7923
-38.3438
-28.1028
-19.1232
-10.7575
-4.45755
35.0149
33.7576
30.5439
25.1709
17.2311
6.07244
-8.90314
-27.5025
-47.9491
-65.3001
-74.435
-74.9939
-68.3741
-58.435
-47.9819
-38.0137
-28.166
-19.3877
-10.9128
-4.53061
33.5522
32.2374
28.8811
23.3213
15.2924
4.29771
-9.96589
-27.1465
-45.2918
-60.8478
-69.3719
-70.5481
-65.5652
-56.9606
-47.2158
-37.6967
-28.1749
-19.5814
-11.046
-4.60203
32.3613
31.0039
27.5446
21.8551
13.7745
2.96905
-10.7293
-26.8495
-43.2837
-57.4319
-65.4586
-67.1005
-63.3459
-55.7536
-46.5995
-37.4374
-28.1568
-19.7074
-11.1344
-4.64301
31.4557
30.0685
26.5384
20.7626
12.6615
1.99961
-11.2633
-26.5666
-41.9195
-54.8934
-62.5648
-64.6833
-61.7192
-54.835
-46.1298
-37.2229
-28.1226
-19.7878
-11.1979
-4.67612
30.8458
29.4392
25.8649
20.0383
11.9327
1.3632
-11.5911
-26.3747
-40.9932
-53.3323
-60.8975
-62.9489
-60.5684
-54.1808
-45.782
-37.0647
-28.0821
-19.8293
-11.2338
-4.6932
30.5389
29.1225
25.5269
19.6763
11.5653
1.04418
-11.7615
-26.309
-40.5356
-52.596
-60.0713
-62.0179
-60.014
-53.8712
-45.6186
-36.9867
-28.0639
-19.8525
-11.2543
-4.70463
70.5341
58.2095
64.9477
67.5888
75.2988
90.7143
62.7608
58.3742
62.1159
66.0085
72.9178
86.074
106.465
136.94
-58.9381
-41.857
-22.1083
-7.40155
-1.89795
1.86081
58.5928
57.2446
59.406
63.1697
68.283
75.753
79.0719
71.0573
-69.9762
-59.2607
-38.4686
-19.6657
-5.92778
-1.91708
0.856585
56.157
55.1936
56.3791
58.8261
61.289
62.4856
54.8092
29.0095
-133.945
-208.374
-100.53
-69.3812
-53.9692
-34.8571
-19.0239
-8.2881
-6.15348
-1.04351
53.5539
52.806
53.1491
54.0793
53.9969
50.4841
36.041
-13.1059
-110.27
-184.766
-228.689
-179.313
-101.905
-72.2047
-53.7185
-36.135
-21.4698
-11.2802
-7.14214
-2.12207
50.9094
50.2297
49.822
49.3275
47.0959
40.2801
22.9748
-21.6764
-107.857
-159.886
-175.664
-145.052
-96.7164
-70.8977
-53.395
-37.3198
-23.4755
-13.3651
-7.94176
-2.81757
48.2654
47.5617
46.4999
44.7683
40.7932
31.9315
13.1823
-24.7544
-89.7954
-134.547
-148.393
-128.303
-92.8405
-69.3386
-53.189
-38.1846
-25.0064
-15.0458
-8.6794
-3.33317
45.6698
44.8983
43.2777
40.5094
35.1975
25.0407
6.23546
-26.5228
-77.4519
-115.346
-128.169
-115.863
-89.2494
-67.7626
-52.4482
-38.5812
-26.0982
-16.3171
-9.28699
-3.68226
43.1799
42.311
40.2239
36.6212
30.337
19.4914
1.08736
-27.5831
-68.17
-100.139
-112.17
-104.625
-84.4745
-65.7309
-51.5048
-38.7156
-26.908
-17.3359
-9.79345
-3.96117
40.841
39.8586
37.3891
33.1382
26.1628
14.9382
-2.62451
-28.0056
-61.0628
-88.0787
-99.2863
-95.101
-80.0081
-63.9197
-50.6781
-38.7489
-27.5136
-18.1272
-10.1982
-4.1712
38.6817
37.5915
34.8125
30.0682
22.6209
11.2937
-5.40964
-28.0566
-55.5716
-78.5844
-89.0518
-87.1082
-75.7278
-61.9779
-49.6933
-38.5272
-27.8209
-18.6568
-10.4781
-4.31404
36.7309
35.5484
32.5239
27.4124
19.6586
8.35921
-7.4224
-27.8333
-51.317
-71.0979
-80.8963
-80.4461
-71.7954
-60.207
-48.7859
-38.3056
-28.0558
-19.0971
-10.7388
-4.4477
35.0138
33.7567
30.5426
25.166
17.227
6.07396
-8.89649
-27.5002
-47.9439
-65.2724
-74.3826
-74.97
-68.4136
-58.5109
-48.0213
-37.9975
-28.1374
-19.3702
-10.9001
-4.52311
33.5513
32.2367
28.8803
23.3178
15.2887
4.30457
-9.96312
-27.146
-45.2822
-60.8316
-69.3384
-70.5345
-65.5864
-57.008
-47.2398
-37.6914
-28.1536
-19.568
-11.0363
-4.59534
32.3607
31.0034
27.5442
21.853
13.7755
2.97479
-10.7262
-26.8502
-43.2803
-57.4242
-65.4408
-67.095
-63.36
-55.7819
-46.6137
-37.4317
-28.1403
-19.6974
-11.1279
-4.63818
31.4554
30.0682
26.5382
20.762
12.6649
1.99931
-11.2611
-26.5673
-41.9204
-54.8903
-62.5599
-64.682
-61.7302
-54.853
-46.1325
-37.2176
-28.1081
-19.779
-11.193
-4.67231
30.8456
29.4391
25.8649
20.0381
11.9318
1.36362
-11.5921
-26.3776
-40.9961
-53.3351
-60.9007
-62.9519
-60.5769
-54.1917
-45.7814
-37.0546
-28.0704
-19.8224
-11.2308
-4.69008
30.5388
29.1223
25.5269
19.6759
11.5647
1.04351
-11.7635
-26.3121
-40.5392
-52.6007
-60.0766
-62.0245
-60.021
-53.878
-45.619
-36.9765
-28.0562
-19.8469
-11.2521
-4.70151
70.52
58.2677
64.9246
67.3452
75.1998
90.9589
62.7573
58.4004
62.1052
65.901
72.8212
85.8227
104.32
131.017
-63.4388
-39.5874
-21.0279
-6.97992
-0.68324
2.01693
58.587
57.2326
59.3866
63.0831
68.1392
75.3713
77.1872
66.6625
-80.5806
-62.3995
-36.0548
-18.7189
-5.72091
-1.23568
0.503431
56.1441
55.1671
56.3494
58.7237
61.1065
62.1184
53.5692
27.4041
-132.049
-208.468
-102.424
-72.9781
-53.2226
-33.5641
-18.2309
-8.72597
-6.16177
-1.28441
53.543
52.7779
53.1178
53.9827
53.8282
50.1946
35.1742
-12.953
-108.366
-184.575
-226.768
-178.647
-102.769
-73.7981
-53.4539
-35.283
-20.9273
-11.2356
-7.09575
-2.26315
50.9004
50.2027
49.7914
49.2402
46.9539
40.0465
22.4755
-21.6516
-107.194
-159.516
-174.95
-145.09
-97.1253
-71.4067
-53.1327
-36.6491
-23.0646
-13.2708
-7.90561
-2.89698
48.2573
47.5368
46.4724
44.6925
40.6832
31.7656
12.9476
-24.6521
-89.2058
-133.999
-148.287
-128.278
-93.3074
-69.6394
-53.049
-37.7822
-24.731
-14.9606
-8.64426
-3.37733
45.6629
44.8768
43.2539
40.4479
35.116
25.0014
6.11508
-26.3781
-77.0133
-114.894
-128.008
-115.891
-89.6386
-68.0955
-52.4244
-38.3182
-25.8971
-16.2497
-9.25307
-3.70798
43.1747
42.295
40.2035
36.5704
30.27
19.4422
1.09263
-27.4802
-67.8687
-99.8042
-112.005
-104.558
-84.6462
-65.8996
-51.4528
-38.5318
-26.7668
-17.2874
-9.76312
-3.97291
40.8373
39.8482
37.3725
33.0956
26.1073
14.9088
-2.6308
-27.9274
-60.8506
-87.8453
-99.1315
-94.9873
-80.0547
-64.0221
-50.6462
-38.6339
-27.4113
-18.0854
-10.1729
-4.17469
38.679
37.5838
34.7992
30.0344
22.5773
11.2548
-5.38337
-27.9817
-55.4687
-78.4317
-88.9365
-86.9789
-75.6982
-62.0248
-49.6609
-38.4495
-27.7502
-18.6289
-10.4614
-4.31424
36.7288
35.5425
32.5141
27.3877
19.6274
8.3477
-7.41212
-27.7943
-51.2536
-71.0064
-80.8247
-80.3245
-71.7517
-60.1916
-48.7682
-38.2533
-28.0048
-19.0733
-10.724
-4.44484
35.0122
33.7523
30.5357
25.1486
17.2077
6.06647
-8.88332
-27.4662
-47.8967
-65.2124
-74.3369
-74.8758
-68.3851
-58.4922
-47.9736
-37.9612
-28.0996
-19.3516
-10.8891
-4.52014
33.5502
32.2336
28.8758
23.3059
15.2764
4.31127
-9.94623
-27.1181
-45.2501
-60.795
-69.311
-70.4877
-65.5704
-57.0204
-47.2031
-37.6705
-28.1258
-19.5527
-11.0268
-4.59158
32.3601
31.0015
27.5415
21.8461
13.7756
2.98298
-10.706
-26.8277
-43.2594
-57.4031
-65.4245
-67.0746
-63.3682
-55.7949
-46.6162
-37.4186
-28.12
-19.6862
-11.121
-4.63474
31.4551
30.0671
26.5369
20.7589
12.665
2.00813
-11.2448
-26.5514
-41.908
-54.8792
-62.5524
-64.6742
-61.7383
-54.8639
-46.132
-37.2061
-28.0918
-19.7698
-11.1877
-4.66885
30.8455
29.4386
25.8646
20.037
11.9327
1.36978
-11.5813
-26.3679
-40.9893
-53.3306
-60.9002
-62.9511
-60.5846
-54.2005
-45.7773
-37.0469
-28.059
-19.8152
-11.2272
-4.68717
30.5388
29.1222
25.527
19.676
11.5659
1.04638
-11.7592
-26.3091
-40.5375
-52.6007
-60.0793
-62.029
-60.028
-53.8848
-45.6171
-36.9661
-28.0494
-19.8416
-11.2501
-4.69912
70.5267
58.28
64.9522
67.2662
75.1943
91.1176
62.7716
58.4052
62.1161
65.8692
72.833
85.8773
104.382
130.8
-65.4795
-33.8231
-18.7097
-3.92324
1.69108
2.34148
58.5929
57.2406
59.4059
63.0884
68.153
75.4203
77.1497
67.2459
-91.1525
-61.0829
-33.0102
-17.4232
-5.51383
-1.64257
-0.374277
56.147
55.1745
56.3702
58.7383
61.1244
62.2156
53.6433
28.1404
-132.061
-208.504
-110.103
-76.8698
-51.9064
-31.9161
-17.5051
-8.77183
-5.99673
-1.55852
53.5465
52.7853
53.1383
54.0007
53.8488
50.2898
35.2161
-12.8172
-108.404
-184.582
-226.381
-178.491
-103.273
-75.3389
-53.0639
-34.3591
-20.3943
-11.0897
-6.92575
-2.34013
50.9038
50.2091
49.8102
49.2578
46.9742
40.1189
22.5051
-21.5637
-107.242
-159.652
-175.12
-145.61
-97.6418
-71.9943
-52.9762
-36.0023
-22.6174
-13.1459
-7.82638
-2.94398
48.2605
47.5424
46.4891
44.7073
40.6999
31.8227
12.9942
-24.5941
-89.2524
-134.195
-148.532
-128.777
-93.5171
-69.8966
-53.0019
-37.4196
-24.4532
-14.8709
-8.60539
-3.38934
45.6656
44.8815
43.2677
40.4592
35.1297
25.0284
6.15789
-26.352
-77.0465
-115.058
-128.198
-116.26
-89.7186
-68.2469
-52.4101
-38.0891
-25.693
-16.1775
-9.215
-3.71017
43.1763
42.2976
40.2123
36.577
30.2769
19.4537
1.11443
-27.4794
-67.896
-99.9157
-112.153
-104.818
-84.7277
-65.9268
-51.412
-38.3751
-26.6212
-17.235
-9.73892
-3.97347
40.8378
39.8482
37.3755
33.0969
26.1092
14.9206
-2.62151
-27.9312
-60.8654
-87.9131
-99.2308
-95.1129
-80.1049
-64.0705
-50.6225
-38.5441
-27.3172
-18.0463
-10.1509
-4.1685
38.6792
37.5834
34.8003
30.0341
22.5774
11.2671
-5.37829
-27.9882
-55.4794
-78.4661
-89.0077
-87.0599
-75.6992
-62.0517
-49.6318
-38.3831
-27.6813
-18.5994
-10.4455
-4.3096
36.7289
35.5421
32.5146
27.387
19.6277
8.35567
-7.40908
-27.7981
-51.2611
-71.0265
-80.8699
-80.37
-71.7871
-60.1743
-48.7469
-38.1996
-27.955
-19.0512
-10.7105
-4.43915
35.0122
33.7519
30.536
25.1478
17.2086
6.06935
-8.88269
-27.4682
-47.9009
-65.2235
-74.3656
-74.9003
-68.4143
-58.464
-47.9106
-37.9234
-28.0626
-19.3349
-10.8791
-4.51597
33.5502
32.2332
28.8759
23.305
15.2788
4.3138
-9.94553
-27.1202
-45.2549
-60.8032
-69.3322
-70.502
-65.5883
-56.993
-47.1649
-37.6465
-28.1026
-19.5413
-11.0188
-4.58741
32.36
31.0012
27.5415
21.8457
13.7779
2.98535
-10.705
-26.8293
-43.2633
-57.4092
-65.4382
-67.0849
-63.3788
-55.7779
-46.5902
-37.4014
-28.103
-19.6781
-11.1152
-4.63153
31.455
30.0669
26.5368
20.7587
12.6656
2.00893
-11.2452
-26.5533
-41.9112
-54.8838
-62.5606
-64.683
-61.7464
-54.8534
-46.1109
-37.192
-28.0782
-19.7634
-11.1828
-4.66586
30.8455
29.4384
25.8645
20.0368
11.9325
1.36979
-11.5816
-26.3687
-40.9913
-53.3334
-60.906
-62.9574
-60.5919
-54.1959
-45.7627
-37.0382
-28.0494
-19.8103
-11.2229
-4.68471
30.5387
29.1221
25.5268
19.6758
11.5654
1.04599
-11.7599
-26.3099
-40.5394
-52.6032
-60.0834
-62.0355
-60.0349
-53.8859
-45.608
-36.9576
-28.0426
-19.838
-11.2464
-4.69692
70.5312
58.2849
64.9629
67.2355
75.1894
91.174
62.7763
58.409
62.1218
65.8525
72.8347
85.9157
104.364
130.594
-61.1028
-28.3779
-16.1245
0.697897
6.0237
3.61052
58.5969
57.2435
59.4127
63.0901
68.1621
75.4838
77.1898
67.1533
-95.9427
-57.5351
-30.5881
-15.5439
-4.20888
-1.78138
-0.844248
56.1506
55.178
56.3782
58.747
61.1363
62.2962
53.6897
28.1277
-131.766
-208.565
-112.047
-79.2081
-51.1497
-30.5364
-16.6671
-8.11139
-5.77677
-1.83686
53.5504
52.7893
53.147
54.0122
53.8612
50.3596
35.2354
-12.8355
-108.376
-184.583
-226.286
-178.785
-103.657
-76.2865
-52.8976
-33.5965
-19.8541
-10.7235
-6.74262
-2.43847
50.9076
50.2128
49.8184
49.269
46.9856
40.1703
22.5129
-21.5779
-107.305
-159.682
-175.294
-145.908
-98.162
-72.5548
-52.9768
-35.493
-22.1898
-12.8986
-7.70133
-2.98617
48.2639
47.5455
46.4962
44.7169
40.7101
31.8591
13.0067
-24.6098
-89.3281
-134.272
-148.631
-129.067
-93.5661
-70.1799
-52.9676
-37.1045
-24.1744
-14.7235
-8.53081
-3.39809
45.6686
44.884
43.2736
40.4667
35.1392
25.0493
6.16809
-26.3768
-77.1029
-115.153
-128.246
-116.524
-89.6862
-68.2512
-52.3856
-37.8981
-25.4969
-16.0621
-9.15064
-3.70136
43.1785
42.2995
40.2171
36.5833
30.2843
19.4647
1.11724
-27.5019
-67.9415
-99.9961
-112.187
-105.052
-84.7317
-65.9031
-51.4022
-38.2566
-26.4873
-17.1524
-9.69338
-3.96255
40.8392
39.8497
37.3794
33.1024
26.1146
14.929
-2.61994
-27.9476
-60.897
-87.9717
-99.2614
-95.2738
-80.1238
-64.1061
-50.6233
-38.4768
-27.2314
-17.9896
-10.118
-4.15661
38.6802
37.5844
34.8032
30.0382
22.5815
11.2737
-5.37942
-28
-55.4997
-78.5049
-89.0396
-87.165
-75.7191
-62.0635
-49.6226
-38.3378
-27.6213
-18.5569
-10.4193
-4.29912
36.7295
35.5426
32.5166
27.3898
19.6305
8.35983
-7.41048
-27.8063
-51.2743
-71.053
-80.894
-80.4428
-71.7979
-60.1749
-48.7385
-38.1737
-27.9172
-19.0234
-10.6926
-4.43045
35.0125
33.7522
30.5373
25.1495
17.2105
6.07084
-8.88483
-27.475
-47.9099
-65.2398
-74.3822
-74.9493
-68.4218
-58.4537
-47.8983
-37.9056
-28.0367
-19.3149
-10.8654
-4.50887
33.5504
32.2334
28.8768
23.3061
15.2801
4.31392
-9.94713
-27.1253
-45.2619
-60.8133
-69.3453
-70.5319
-65.5948
-56.9551
-47.1585
-37.6294
-28.0846
-19.5283
-11.01
-4.5821
32.3601
31.0012
27.542
21.8463
13.7788
2.98498
-10.7068
-26.8331
-43.268
-57.4157
-65.447
-67.1022
-63.385
-55.7522
-46.5582
-37.3867
-28.0897
-19.6686
-11.1084
-4.62713
31.4551
30.0668
26.5371
20.759
12.6658
2.00798
-11.2473
-26.5565
-41.9148
-54.8881
-62.5673
-64.6944
-61.7523
-54.8351
-46.0901
-37.1834
-28.0691
-19.7567
-11.1779
-4.66246
30.8455
29.4384
25.8645
20.0369
11.9323
1.36891
-11.5832
-26.3707
-40.9938
-53.3362
-60.9112
-62.9647
-60.5977
-54.1846
-45.7506
-37.0325
-28.042
-19.8051
-11.2192
-4.68211
30.5387
29.122
25.5268
19.6757
11.5651
1.04535
-11.7611
-26.3113
-40.5415
-52.6057
-60.0871
-62.0423
-60.0413
-53.8832
-45.5971
-36.9546
-28.0364
-19.8337
-11.2435
-4.69468
70.5341
58.2878
64.9665
67.2231
75.1867
91.2048
62.7788
58.411
62.1241
65.8441
72.8355
85.94
104.346
130.578
-57.16
-24.3242
-14.1298
4.1137
8.0456
4.42071
58.5989
57.2439
59.4136
63.087
68.1586
75.5036
77.1437
67.1053
-90.2674
-57.0527
-29.0768
-14.1483
-3.34739
-2.02086
-0.606679
56.1525
55.1779
56.3789
58.7459
61.1307
62.3173
53.6363
28.0613
-131.663
-208.568
-111.056
-79.3139
-51.3682
-29.7539
-15.8564
-7.46071
-5.71218
-1.96271
53.5525
52.7895
53.1481
54.0128
53.8559
50.3778
35.1909
-12.8646
-108.346
-184.568
-226.25
-178.932
-103.576
-76.4523
-52.9487
-33.0928
-19.3512
-10.3359
-6.69838
-2.54414
50.9096
50.2129
49.8194
49.2701
46.9812
40.1829
22.481
-21.6035
-107.308
-159.641
-175.344
-145.982
-98.3228
-72.7315
-53.0117
-35.1881
-21.8371
-12.6419
-7.63373
-3.03172
48.2658
47.5455
46.4971
44.7181
40.7073
31.8668
12.9883
-24.6285
-89.3399
-134.245
-148.654
-129.174
-93.717
-70.3222
-52.9908
-36.9122
-23.9375
-14.5609
-8.47594
-3.41919
45.6703
44.884
43.2744
40.4676
35.1377
25.0541
6.1585
-26.3942
-77.1097
-115.152
-128.244
-116.632
-89.7603
-68.3497
-52.4204
-37.7863
-25.3357
-15.9465
-9.10131
-3.70264
43.1798
42.2997
40.218
36.5842
30.2833
19.4657
1.11142
-27.5144
-67.9506
-100.01
-112.16
-105.161
-84.7678
-65.9789
-51.4352
-38.1896
-26.3804
-17.0729
-9.65606
-3.95727
40.8402
39.85
37.3806
33.1033
26.1134
14.9288
-2.62329
-27.956
-60.9045
-87.9853
-99.2408
-95.3553
-80.1567
-64.1605
-50.6452
-38.4371
-27.1626
-17.9356
-10.0902
-4.15027
38.6808
37.5847
34.8042
30.0389
22.5805
11.2729
-5.38206
-28.0055
-55.5056
-78.5164
-89.0263
-87.2258
-75.7455
-62.0912
-49.6324
-38.3121
-27.5749
-18.5186
-10.3975
-4.29179
36.7299
35.5428
32.5173
27.3903
19.6297
8.35928
-7.41221
-27.8099
-51.2789
-71.0631
-80.8833
-80.4883
-71.8102
-60.1915
-48.747
-38.1623
-27.8895
-18.9988
-10.6778
-4.42459
35.0127
33.7523
30.5378
25.1498
17.2099
6.07019
-8.8862
-27.4774
-47.9128
-65.2468
-74.3743
-74.9799
-68.4292
-58.4661
-47.9051
-37.8983
-28.0181
-19.2975
-10.8538
-4.50331
33.5505
32.2334
28.8771
23.3062
15.2796
4.31333
-9.94775
-27.1267
-45.2633
-60.818
-69.3406
-70.552
-65.6012
-56.9615
-47.1618
-37.6249
-28.0729
-19.5171
-11.0023
-4.57812
32.3602
31.0012
27.5423
21.8463
13.7785
2.98462
-10.707
-26.8338
-43.2685
-57.4185
-65.445
-67.1139
-63.3905
-55.75
-46.557
-37.3839
-28.0822
-19.6609
-11.1026
-4.62368
31.4551
30.0668
26.5372
20.759
12.6656
2.00755
-11.2476
-26.557
-41.9155
-54.8894
-62.5681
-64.7016
-61.7566
-54.8301
-46.0894
-37.1822
-28.0642
-19.7516
-11.174
-4.65983
30.8454
29.4383
25.8645
20.0369
11.9321
1.36857
-11.5834
-26.3709
-40.9943
-53.3371
-60.9127
-62.969
-60.6013
-54.1782
-45.7491
-37.0302
-28.0372
-19.8009
-11.216
-4.67989
30.5386
29.1219
25.5268
19.6757
11.565
1.04512
-11.7613
-26.3117
-40.5423
-52.6067
-60.0885
-62.0468
-60.0456
-53.8797
-45.5905
-36.9529
-28.0322
-19.8302
-11.2408
-4.6928
70.5359
58.2897
64.9677
67.2175
75.1862
91.2238
62.7805
58.4123
62.1249
65.8397
72.8357
85.9529
104.335
130.593
-59.118
-24.0807
-13.0544
5.61976
8.35042
4.63195
58.6003
57.2443
59.4141
63.0855
68.1572
75.5134
77.1244
67.1067
-84.867
-59.4626
-28.6516
-13.4626
-3.03972
-2.4436
-0.326992
56.1537
55.178
56.3795
58.7456
61.1285
62.3284
53.6194
28.0619
-131.614
-208.536
-110.298
-78.4289
-52.2403
-29.494
-15.2653
-7.06688
-5.74262
-1.9807
53.5537
52.7896
53.149
54.0136
53.854
50.3888
35.1778
-12.8598
-108.304
-184.531
-226.204
-178.968
-103.191
-76.1877
-53.2002
-32.8695
-18.9445
-10.0567
-6.74477
-2.61168
50.9108
50.213
49.8203
49.2713
46.9798
40.1917
22.4706
-21.6005
-107.285
-159.598
-175.321
-145.952
-98.2364
-72.6419
-53.1041
-35.1008
-21.5846
-12.4446
-7.61752
-3.05556
48.267
47.5457
46.498
44.7194
40.7065
31.8731
12.9824
-24.6265
-89.3277
-134.215
-148.646
-129.188
-93.7168
-70.307
-53.0396
-36.8569
-23.7638
-14.4202
-8.44394
-3.43246
45.6713
44.8841
43.2752
40.4687
35.1373
25.0584
6.15594
-26.3951
-77.102
-115.135
-128.239
-116.654
-89.7831
-68.3727
-52.4533
-37.7555
-25.2258
-15.8514
-9.06728
-3.70229
43.1807
42.2998
40.2187
36.5851
30.283
19.4679
1.11029
-27.5162
-67.9475
-100.003
-112.145
-105.193
-84.7945
-66.0099
-51.4559
-38.1673
-26.3074
-17.0082
-9.62839
-3.95312
40.8407
39.8501
37.3812
33.104
26.113
14.93
-2.62339
-27.9577
-60.9039
-87.9815
-99.2273
-95.3823
-80.1749
-64.1826
-50.6596
-38.4242
-27.1173
-17.8933
-10.069
-4.14502
38.6811
37.5848
34.8047
30.0393
22.58
11.2735
-5.38189
-28.0067
-55.5065
-78.5162
-89.0119
-87.2496
-75.759
-62.1039
-49.6397
-38.3023
-27.5443
-18.4893
-10.381
-4.28635
36.7301
35.5429
32.5177
27.3905
19.6292
8.35963
-7.41197
-27.8106
-51.2805
-71.0649
-80.8691
-80.5078
-71.8193
-60.1996
-48.7519
-38.1572
-27.8708
-18.9802
-10.6666
-4.42042
35.0129
33.7523
30.5381
25.1499
17.2096
6.07034
-8.88614
-27.4774
-47.9141
-65.2492
-74.3627
-74.9933
-68.436
-58.472
-47.9073
-37.8935
-28.0049
-19.2843
-10.845
-4.49934
33.5506
32.2334
28.8773
23.3063
15.2793
4.31341
-9.9475
-27.1263
-45.2635
-60.8209
-69.3314
-70.5617
-65.6067
-56.9656
-47.163
-37.6226
-28.065
-19.5089
-10.9965
-4.57529
32.3602
31.0011
27.5423
21.8463
13.7784
2.98477
-10.7066
-26.8335
-43.2681
-57.4204
-65.4393
-67.1195
-63.3942
-55.7521
-46.5587
-37.382
-28.0765
-19.6551
-11.0983
-4.6212
31.4551
30.0667
26.5372
20.759
12.6656
2.00758
-11.2474
-26.5566
-41.9155
-54.89
-62.5659
-64.7048
-61.7592
-54.8303
-46.0912
-37.181
-28.0604
-19.7479
-11.1711
-4.65806
30.8454
29.4382
25.8645
20.0369
11.932
1.36855
-11.5832
-26.3707
-40.9941
-53.3372
-60.9116
-62.9707
-60.6032
-54.1763
-45.7503
-37.0288
-28.0339
-19.7979
-11.2136
-4.67826
30.5386
29.1219
25.5268
19.6758
11.5649
1.04511
-11.7613
-26.3115
-40.5423
-52.6067
-60.0878
-62.0483
-60.0479
-53.8779
-45.5891
-36.9521
-28.0298
-19.8281
-11.2389
-4.69142
70.5371
58.2908
64.9681
67.2147
75.186
91.2337
62.7815
58.4131
62.1251
65.8374
72.8358
85.9604
104.332
130.596
-62.099
-26.2557
-12.9303
5.61537
7.8208
4.53329
58.6012
57.2447
59.4144
63.085
68.1567
75.5215
77.1214
67.1114
-82.7174
-61.6535
-29.0596
-13.3712
-2.97141
-2.62287
-0.212018
56.1545
55.1784
56.3801
58.746
61.128
62.3376
53.619
28.0655
-131.576
-208.486
-109.615
-77.372
-53.1543
-29.7031
-14.971
-6.87263
-5.75062
-1.959
53.5545
52.79
53.1498
54.0148
53.8539
50.398
35.1783
-12.8529
-108.273
-184.477
-226.106
-178.893
-102.669
-75.7752
-53.5572
-32.9494
-18.6924
-9.88483
-6.76976
-2.63541
50.9116
50.2134
49.8212
49.2727
46.9799
40.1994
22.4707
-21.5942
-107.257
-159.547
-175.23
-145.82
-97.9986
-72.448
-53.2684
-35.2142
-21.4515
-12.3223
-7.6104
-3.05191
48.2677
47.5461
46.4989
44.7208
40.7069
31.8791
12.9834
-24.6212
-89.31
-134.177
-148.594
-129.098
-93.5909
-70.2037
-53.1247
-36.9365
-23.6748
-14.323
-8.41936
-3.42739
45.672
44.8845
43.276
40.47
35.1379
25.0626
6.15768
-26.3917
-77.0915
-115.108
-128.207
-116.594
-89.7183
-68.3203
-52.4954
-37.8062
-25.1758
-15.788
-9.04382
-3.69456
43.1811
42.3001
40.2194
36.5862
30.2835
19.4707
1.11191
-27.5142
-67.9405
-99.9865
-112.121
-105.159
-84.7623
-65.9818
-51.4776
-38.1988
-26.278
-16.9653
-9.60703
-3.9455
40.8411
39.8503
37.3818
33.1048
26.1134
14.9319
-2.62175
-27.9563
-60.8996
-87.9695
-99.2118
-95.3623
-80.1545
-64.1666
-50.6728
-38.4445
-27.1018
-17.8666
-10.0528
-4.13837
38.6814
37.5849
34.8051
30.0398
22.5803
11.2749
-5.3805
-28.0057
-55.504
-78.5089
-88.9986
-87.239
-75.7474
-62.0951
-49.6467
-38.3136
-27.5346
-18.4713
-10.3683
-4.28071
36.7303
35.543
32.5179
27.3909
19.6294
8.3606
-7.41091
-27.8097
-51.2794
-71.0602
-80.8577
-80.5026
-71.813
-60.1938
-48.7552
-38.1641
-27.8658
-18.9697
-10.6583
-4.41643
35.013
33.7524
30.5383
25.1502
17.2098
6.07101
-8.88543
-27.4763
-47.9138
-65.2465
-74.3531
-74.9906
-68.4323
-58.4679
-47.9087
-37.8969
-28.0014
-19.2772
-10.8387
-4.4959
33.5506
32.2334
28.8774
23.3065
15.2795
4.31386
-9.94689
-27.1253
-45.2627
-60.8202
-69.3233
-70.5607
-65.6047
-56.9627
-47.1635
-37.6248
-28.0631
-19.5049
-10.9926
-4.57298
32.3602
31.0011
27.5424
21.8464
13.7785
2.9851
-10.7061
-26.8328
-43.2671
-57.4198
-65.4335
-67.1184
-63.3926
-55.7505
-46.5595
-37.3828
-28.0749
-19.6522
-11.0952
-4.61925
31.4551
30.0667
26.5373
20.7591
12.6657
2.0078
-11.2471
-26.5561
-41.9149
-54.8893
-62.5622
-64.7038
-61.7581
-54.8293
-46.0925
-37.1817
-28.0595
-19.7463
-11.1693
-4.65683
30.8454
29.4382
25.8646
20.037
11.9321
1.36869
-11.583
-26.3702
-40.9934
-53.3364
-60.9086
-62.9698
-60.6024
-54.1751
-45.7518
-37.0292
-28.0331
-19.7966
-11.212
-4.6771
30.5386
29.1218
25.5268
19.6758
11.565
1.04522
-11.761
-26.311
-40.5417
-52.6059
-60.0856
-62.047
-60.0474
-53.8766
-45.5907
-36.9526
-28.0294
-19.8275
-11.2378
-4.69063
70.5379
58.2914
64.9682
67.213
75.1858
91.2388
62.7822
58.4135
62.125
65.8361
72.8357
85.9649
104.331
130.598
-62.9433
-28.7398
-13.3887
4.87331
7.09678
4.28333
58.6017
57.2449
59.4143
63.0846
68.1563
75.5264
77.1211
67.1151
-82.2618
-62.1926
-30.181
-13.7265
-3.0425
-2.6847
-0.189725
56.1549
55.1785
56.3802
58.746
61.1275
62.3431
53.6196
28.0687
-131.539
-208.423
-109.038
-76.4259
-53.7918
-30.3076
-14.9734
-6.80061
-5.71927
-1.90794
53.5549
52.7902
53.1501
54.0153
53.8535
50.4034
35.1797
-12.8459
-108.24
-184.406
-225.944
-178.719
-102.134
-75.3411
-53.9301
-33.3126
-18.6253
-9.80037
-6.74742
-2.61424
50.9121
50.2136
49.8216
49.2735
46.9799
40.2042
22.4723
-21.5882
-107.222
-159.477
-175.079
-145.59
-97.6743
-72.2247
-53.4767
-35.4958
-21.4476
-12.2735
-7.59227
-3.02548
48.2681
47.5463
46.4993
44.7217
40.7071
31.883
12.9855
-24.616
-89.2852
-134.124
-148.499
-128.913
-93.3848
-70.0625
-53.2432
-37.1326
-23.6812
-14.2787
-8.39553
-3.40773
45.6723
44.8847
43.2764
40.4708
35.1383
25.0657
6.16015
-26.387
-77.0748
-115.068
-128.141
-116.462
-89.5876
-68.2299
-52.5636
-37.9377
-25.1921
-15.7622
-9.02704
-3.68144
43.1814
42.3002
40.2198
36.5869
30.284
19.4728
1.1141
-27.5103
-67.9277
-99.9563
-112.079
-105.07
-84.6778
-65.9203
-51.5141
-38.2834
-26.2959
-16.95
-9.59229
-3.93537
40.8414
39.8505
37.3821
33.1054
26.1138
14.9334
-2.61986
-27.9529
-60.8901
-87.947
-99.1835
-95.3023
-80.0969
-64.1249
-50.6929
-38.4985
-27.1185
-17.8593
-10.0426
-4.13134
38.6816
37.585
34.8054
30.0403
22.5806
11.276
-5.37892
-28.003
-55.497
-78.4929
-88.9785
-87.199
-75.7096
-62.0684
-49.6573
-38.3467
-27.5471
-18.4675
-10.3605
-4.27541
36.7304
35.543
32.5182
27.3912
19.6297
8.3615
-7.40961
-27.8075
-51.2744
-71.0488
-80.8432
-80.4763
-71.788
-60.1759
-48.7603
-38.1846
-27.8757
-18.9689
-10.6535
-4.41298
35.0131
33.7524
30.5384
25.1505
17.21
6.07169
-8.88439
-27.4744
-47.9105
-65.2385
-74.3423
-74.9733
-68.4156
-58.4559
-47.9113
-37.9096
-28.0082
-19.2771
-10.8352
-4.49317
33.5507
32.2334
28.8775
23.3067
15.2797
4.31436
-9.94607
-27.1237
-45.2604
-60.8148
-69.315
-70.5493
-65.5936
-56.9545
-47.1649
-37.6327
-28.0681
-19.5057
-10.9907
-4.57132
32.3602
31.0011
27.5425
21.8466
13.7787
2.98549
-10.7054
-26.8315
-43.2654
-57.4161
-65.4275
-67.1108
-63.3848
-55.7447
-46.56
-37.3875
-28.0781
-19.6529
-11.0938
-4.61793
31.4551
30.0667
26.5373
20.7592
12.6658
2.00811
-11.2465
-26.5551
-41.9133
-54.887
-62.557
-64.6985
-61.7527
-54.8254
-46.0931
-37.1848
-28.062
-19.7473
-11.1687
-4.65612
30.8454
29.4382
25.8646
20.0371
11.9322
1.36894
-11.5825
-26.3693
-40.9921
-53.3344
-60.9037
-62.9664
-60.5986
-54.172
-45.7523
-37.0312
-28.0348
-19.7974
-11.2115
-4.67645
30.5386
29.1218
25.5268
19.6759
11.5651
1.04543
-11.7606
-26.3101
-40.5405
-52.604
-60.0821
-62.0429
-60.0442
-53.8744
-45.5914
-36.954
-28.0308
-19.8286
-11.2377
-4.6904
70.5383
58.2916
64.9679
67.212
75.1855
91.2414
62.7826
58.4136
62.1247
65.8352
72.8354
85.9672
104.331
130.6
-61.7758
-31.1142
-14.3285
3.82549
6.47216
3.8926
58.602
57.2448
59.414
63.0841
68.156
75.5293
77.1225
67.1206
-82.2444
-61.1403
-31.4951
-14.4187
-3.17999
-2.6164
-0.202051
56.1551
55.1785
56.38
58.7458
61.1272
62.3463
53.6219
28.0753
-131.503
-208.344
-108.823
-75.7118
-54.2054
-31.2154
-15.2196
-6.79832
-5.64401
-1.82056
53.5551
52.7902
53.15
54.0154
53.8534
50.4068
35.1827
-12.8355
-108.204
-184.32
-225.718
-178.448
-101.625
-74.936
-54.3266
-33.9205
-18.7432
-9.78769
-6.67915
-2.549
50.9122
50.2137
49.8216
49.2738
46.9799
40.2073
22.4756
-21.5791
-107.18
-159.388
-174.88
-145.274
-97.286
-71.9978
-53.727
-35.9265
-21.5761
-12.2891
-7.55878
-2.9804
48.2682
47.5463
46.4994
44.7221
40.7073
31.8856
12.9888
-24.6079
-89.2547
-134.056
-148.37
-128.646
-93.1087
-69.8945
-53.3871
-37.43
-23.7887
-14.2902
-8.36971
-3.37514
45.6724
44.8847
43.2765
40.4712
35.1386
25.0678
6.16332
-26.3794
-77.0523
-115.016
-128.048
-116.271
-89.4006
-68.1072
-52.6479
-38.1374
-25.278
-15.7771
-9.01395
-3.66272
43.1815
42.3003
40.2199
36.5873
30.2843
19.4745
1.11694
-27.5039
-67.9101
-99.9163
-112.019
-104.938
-84.55
-65.8321
-51.56
-38.411
-26.36
-16.9649
-9.58453
-3.92333
40.8415
39.8505
37.3823
33.1058
26.1141
14.9348
-2.61742
-27.9475
-60.8767
-87.9175
-99.1437
-95.2122
-80.0087
-64.0632
-50.7178
-38.5799
-27.166
-17.8733
-10.039
-4.12431
38.6816
37.5851
34.8055
30.0406
22.5809
11.2771
-5.3769
-27.9986
-55.4868
-78.4716
-88.9514
-87.1382
-75.6503
-62.0276
-49.6702
-38.3973
-27.5803
-18.4787
-10.3584
-4.27088
36.7305
35.5431
32.5183
27.3915
19.63
8.36235
-7.4079
-27.8041
-51.2666
-71.0335
-80.8245
-80.4355
-71.7481
-60.1484
-48.7667
-38.2161
-27.899
-18.9783
-10.6531
-4.41047
35.0131
33.7524
30.5385
25.1507
17.2103
6.07237
-8.88301
-27.4718
-47.9047
-65.2272
-74.3292
-74.9461
-68.3886
-58.4376
-47.9148
-37.9294
-28.0242
-19.2841
-10.835
-4.4914
33.5507
32.2334
28.8776
23.3068
15.2799
4.3149
-9.94502
-27.1217
-45.2564
-60.8064
-69.3057
-70.5307
-65.5753
-56.9423
-47.1667
-37.6451
-28.0791
-19.5112
-10.9911
-4.57045
32.3602
31.0011
27.5426
21.8467
13.7789
2.98595
-10.7046
-26.8297
-43.2626
-57.4102
-65.4203
-67.0982
-63.3722
-55.7362
-46.5608
-37.3952
-28.0856
-19.657
-11.0942
-4.61728
31.455
30.0667
26.5374
20.7593
12.666
2.00849
-11.2458
-26.5537
-41.9109
-54.8831
-62.5509
-64.6899
-61.7439
-54.8193
-46.0935
-37.19
-28.0674
-19.7507
-11.1693
-4.65592
30.8454
29.4382
25.8647
20.0371
11.9324
1.36926
-11.5819
-26.3681
-40.9901
-53.3311
-60.898
-62.9605
-60.5922
-54.1674
-45.7524
-37.0348
-28.0388
-19.8002
-11.212
-4.67627
30.5386
29.1218
25.5269
19.676
11.5652
1.04572
-11.7601
-26.3091
-40.5388
-52.6011
-60.0777
-62.0366
-60.0388
-53.8707
-45.5914
-36.9566
-28.0341
-19.8313
-11.2385
-4.69067
70.5384
58.2917
64.9674
67.2111
75.1849
91.2423
62.7826
58.4135
62.1242
65.8344
72.8349
85.968
104.332
130.603
-58.5502
-33.0449
-15.64
2.58354
5.86191
3.41629
58.6019
57.2446
59.4135
63.0836
68.1556
75.5303
77.1251
67.1276
-83.1435
-58.9787
-32.4082
-15.1894
-3.31711
-2.39677
-0.204148
56.1551
55.1783
56.3796
58.7455
61.1269
62.3478
53.6255
28.0839
-131.467
-208.255
-109.036
-75.3362
-54.6329
-32.3981
-15.6813
-6.82097
-5.48542
-1.68082
53.555
52.7901
53.1497
54.0153
53.8534
50.4085
35.1869
-12.8234
-108.166
-184.22
-225.435
-178.068
-101.099
-74.5733
-54.7955
-34.7518
-19.0526
-9.83807
-6.56116
-2.43618
50.9121
50.2135
49.8214
49.2738
46.98
40.2091
22.4799
-21.5677
-107.136
-159.284
-174.642
-144.871
-96.8055
-71.7495
-54.0254
-36.4979
-21.8473
-12.3703
-7.50981
-2.91346
48.2682
47.5462
46.4993
44.7222
40.7075
31.8873
12.9929
-24.5975
-89.2216
-133.976
-148.216
-128.314
-92.7505
-69.688
-53.5471
-37.8123
-23.9987
-14.3618
-8.34619