/*--------------------------------*- C++ -*----------------------------------*\
  =========                 |
  \\      /  F ield         | OpenFOAM: The Open Source CFD Toolbox
   \\    /   O peration     | Website:  https://openfoam.org
    \\  /    A nd           | Version:  10
     \\/     M anipulation  |
\*---------------------------------------------------------------------------*/
FoamFile
{
    format      ascii;
    class       surfaceScalarField;
    location    "2000";
    object      phi;
}
// * * * * * * * * * * * * * * * * * * * * * * * * * * * * * * * * * * * * * //

dimensions      [0 3 -1 0 0 0 0];

internalField   nonuniform List<scalar> 
164653
(
-3.3608
38.9677
19.7444
3.2582
0.0795458
-38.3598
38.2083
18.9428
0.323102
-0.0781509
-0.0408912
-0.173101
-0.1282
-38.1104
37.729
19.055
0.957999
-0.0174516
-0.192265
-0.126002
-0.913007
-9.9214
10.0363
5.00894
0.81125
-0.217251
-8.9249
8.64176
4.51218
0.483378
-6.97427
7.08524
0.287797
3.9642
-0.0760501
-20.7044
159.279
20.5821
81.1445
0.737855
-158.694
157.874
0.109458
80.2371
-6.09781
-156.687
156.136
6.78175
79.7392
-3.76087
-156.78
155.273
16.7922
80.2408
-3.84339
-3.64272
-3.93136
-4.65958
-153.862
151.559
22.6641
80.1351
-5.32636
-4.89456
-5.63218
-6.52952
-147.922
142.026
35.2361
78.5216
-7.85794
-6.52867
-8.07137
-22.9054
80.8629
75.0368
-14.4328
-22.8492
-15.0159
-128.864
31.9342
32.0714
32.7606
32.7958
-7.11559
-27.9318
29.3236
20.5304
-10.5767
-7.60242
-11.112
7.038
9.8683
9.93292
7.16001
-0.930228
0.902088
0.0700154
-0.00801038
1.56726
-0.116373
-2.325
1.62494
1.49832
1.61649
-1.30985
-1.49803
-1.33953
-1.33955
0.327123
-0.0783035
0.793253
-1.68453
1.83457
0.41051
-0.384537
-0.0499308
-0.342164
0.751197
0.632703
0.571745
0.00646818
-1.80447
2.7236
5.17913
0.417127
0.0666189
0.0236997
0.0870981
0.128802
-6.60436
8.19707
9.3622
-0.166556
0.105506
0.241031
0.224201
0.226961
-10.7489
10.88
13.7612
0.319151
653.003
23.5151
333.226
-20.4815
0.723289
-9.49904
6.85785
646.717
8.9466
330.628
-0.722149
-2.13869
1.90187
-0.746485
647.283
44.6499
329.142
-7.61671
-14.8682
-7.16667
-14.1033
640.564
75.7404
330.891
-17.6706
-20.06
-13.5065
-17.4437
627.165
107.68
331.823
-24.9533
-28.877
-20.5267
-21.2471
591.874
247.529
326.061
-40.1365
-66.8488
-40.8768
-71.9581
145.223
346.955
330.304
143.45
147.523
150.967
-88.6473
-86.4441
-77.3154
-104.881
-33.8251
145.915
80.6888
39.3984
36.8905
36.2267
38.5978
-41.1613
-35.3098
-42.5344
0.147539
-1.15839
3.11569
0.500139
3.40598
-72.8959
77.9276
-39.4816
86.5491
3.75372
4.83284
5.28895
3.48321
-77.7548
79.0141
-28.3352
73.6256
4.01025
3.2767
3.62614
9.57247
-82.3562
85.6792
-20.5192
67.0606
2.44254
-82.3002
93.1971
-16.1038
58.2538
7.13627
-103.4
110.321
-16.0637
64.9326
2.51167
-115.944
122.53
-12.0554
65.7859
662.433
22.7488
337.524
659.671
12.4632
337.754
657.557
47.5161
336.978
654.108
79.4769
337.618
652.651
112.253
337.25
645.471
258.406
337.147
166.313
304.752
342.456
179.27
162.766
178.006
-122.067
170.435
115.254
82.1289
-52.2546
-47.3514
52.4903
19.3032
47.0704
-17.321
13.3364
3.83329
5.21141
0.145694
3.25257
-10.8897
45.6024
-13.7699
20.2849
3.11948
3.34778
3.23178
-10.9216
-11.3992
-11.4404
8.62434
-45.7104
182.727
-21.8725
103.044
2.83433
11.4996
2.05764
-46.285
-46.816
-47.23
750.066
-219.221
381.952
43.9989
37.7884
57.5114
46.1824
-165.928
-192.526
-165.96
-192.711
733.683
-145.298
383.365
34.4509
30.7786
41.6374
38.6228
732.772
-85.6322
359.518
26.0926
11.4465
30.6122
7.48475
713.721
-115.752
353.321
14.6311
28.451
26.1416
43.6421
708.009
-67.149
333.197
21.3192
14.0237
27.2617
2.11764
-64.9234
329.551
15.0702
16.7327
13.0416
11.9783
672.302
21.6773
342.595
671.075
14.5221
343.083
670.331
49.0605
342.464
669.368
80.8685
342.908
668.016
113.338
342.542
677.38
249.637
342.843
714.603
266.848
337.985
200.289
443.586
340.391
-116.886
-156.427
-119.771
-147.089
199.923
204.216
203.643
-139.452
213.929
127.033
82.2367
-17.9596
227.337
64.2
80.032
-16.7522
-18.1643
-16.5278
-222.8
-10.2285
-59.1456
60.3662
20.5388
9.04539
8.96325
-226.634
214.047
-20.6824
83.7425
12.5108
-0.0539298
9.83842
45.8489
-209.482
203.721
-39.6575
87.3539
789.372
-153.638
375.973
24.3755
37.1646
39.3499
40.6452
-189.309
-196.377
-201.229
-196.975
779.129
-214.878
377.835
757.525
-129.63
364.278
729.139
-76.6667
355.392
739.946
-145.68
345.639
735.282
-71.3874
341.764
-71.8529
336.323
680.724
20.4744
346.915
680.563
15.6
347.483
681.247
49.2334
346.968
682.706
79.8984
347.349
685.84
110.172
346.903
701.617
234.359
347.451
737.462
230.689
343.407
839.242
340.677
343.477
876.029
285.359
343.887
-112.621
-68.4924
-95.3163
-48.7493
227.714
178.885
332.435
-58.8168
-50.1789
-48.7037
-48.2198
225.266
227.968
225.215
-24.3674
229.554
21.6334
85.5282
847.656
-81.0371
355.219
13.6272
43.4101
4.27996
55.6029
-225.305
-223.436
-225.887
-223.562
847.65
-95.5021
359.417
33.8859
13.5472
21.8712
22.3167
803.92
-102.918
365.213
783.604
-199.411
366.767
770.613
-121.301
358.949
763.066
-74.0266
354.81
751.885
-140.164
350.095
746.604
-71.2813
347.381
-63.7252
344.284
688.053
19.1888
350.665
688.685
15.9279
351.239
690.666
48.1466
350.782
704.121
71.9683
351.173
700.204
119.482
350.48
738.429
204.258
351.58
755.507
225.718
348.035
812.118
283.884
349.323
859.688
237.683
346.643
890.28
149.058
342.893
882.313
34.663
344.737
-18.5205
3.07373
-11.9732
-2.32251
852.131
-49.7953
344.737
832.975
-75.5693
351.262
840.57
-127.144
374.236
791.992
-162.813
372.259
778.812
-109.87
357.186
770.913
-68.307
355.181
758.906
-131.405
352.913
753.046
-68.2807
351.136
-69.1806
349.477
694.545
17.8191
353.96
695.766
15.7285
354.502
698.852
46.0181
354.085
702.726
67.9977
354.491
718.901
106.842
353.58
757.705
154.312
365.401
760.398
209.608
367.294
809.297
234.542
352.694
849.917
197.532
351.272
872.847
127.343
348.489
869.72
35.1856
351.292
851.923
-32.6482
350.979
834.711
-60.6498
354.205
830.482
-121.078
362.885
796.541
-119.815
356.342
783.809
-98.8714
357.384
776.075
-62.2315
356.231
763.736
-121.315
355.389
757.598
-63.8861
354.246
-65.3887
353.623
712.374
10.4469
356.913
714.46
27.2579
357.393
715.239
57.1649
357.04
710.987
76.9534
357.41
720.367
96.987
356.547
739.549
137.283
351.533
776.523
174.863
359.055
817.812
202.562
356.003
841.665
180.12
355.131
861.776
108.041
353.184
861.794
34.4372
355.143
837.944
-3.44572
349.458
834.154
-53.8165
352.407
813.733
-104.529
363.547
807.187
-108.782
357.424
787.274
-76.4865
359.224
779.85
-55.8738
358.797
767.288
-110.543
358.609
771.594
-64.56
357.767
-45.1876
357.419
704.241
9.50923
359.587
706.411
24.9442
360.015
711.216
52.0231
359.723
718.133
69.5614
360.083
728.222
86.4375
359.253
748.039
119.447
354.971
769.509
149.725
362.116
803.148
168.094
359.34
834.927
150.151
358.509
852.62
91.0516
356.891
854.588
32.4119
358.493
847.022
4.13933
357.854
833.619
-43.4082
360.944
814.834
-89.3684
364.724
801.123
-94.1252
358.796
790.344
-66.6654
360.53
783.212
-49.2165
360.506
770.505
-98.9455
360.871
762.886
-58.0795
360.383
-41.0911
360.557
709.062
8.48976
362.015
711.523
22.3453
362.398
716.877
46.3478
362.168
724.383
61.582
362.541
734.847
75.5371
361.819
746.262
115.389
354.346
773.854
127.326
358.28
808.645
130.033
365.179
838.319
122.169
364.306
850.718
85.7712
360.027
848.537
37.2654
361.484
844.965
8.06834
360.943
832.777
-33.4645
363.49
816.026
-75.8018
366.235
802.841
-80.1047
361.047
801.137
-61.6342
362.469
785.896
-30.6429
362.87
773.104
-87.0037
363.486
765.236
-51.3168
363.184
-36.5915
363.517
713.519
7.39479
364.257
716.213
19.518
364.603
721.959
40.2977
364.433
729.875
53.2044
364.815
740.426
64.5659
364.165
756.829
97.2097
363.729
776.906
106.204
364.814
801.521
105.81
364.487
823.591
99.7544
363.524
838.553
70.808
362.833
845.845
31.0926
364.097
844.779
11.5817
363.679
831.922
-21.6683
365.916
800.563
-38.6092
359.119
804.257
-76.2107
356.801
794.091
-51.9211
364.223
788.396
-25.7873
365.012
775.552
-74.7545
365.763
767.425
-44.2107
365.596
-31.7138
366.071
717.635
6.24956
366.349
720.523
16.4868
366.656
726.57
33.9463
366.555
734.749
44.5612
366.924
745.13
53.752
366.156
760.941
79.7519
366.166
779.682
86.2673
367.011
801.099
84.5662
366.844
818.316
81.0638
365.66
834.367
53.4814
365.412
839.26
26.1653
366.465
839.256
11.4605
366.237
831.223
-15.9393
368.245
821.39
-30.568
368.619
804.316
-60.1908
368.333
795.874
-43.5375
365.165
790.558
-21.1127
367.133
777.716
-62.3599
368.024
769.431
-36.9585
367.931
-26.6427
368.483
721.507
5.04628
368.311
724.513
13.3386
368.578
730.794
27.3719
368.541
739.095
35.7908
368.862
741.367
51.3581
365.901
764.622
55.5756
366.36
782.305
67.391
369.153
801.317
65.5458
368.954
819.877
62.466
367.824
831.585
41.8017
367.727
836.61
21.1327
368.607
847.987
-5.22754
373.558
830.941
-5.53369
374.854
821.982
-23.3672
370.679
807.339
-46.8351
371.339
797.736
-34.6826
367.347
792.697
-16.6388
369.154
779.912
-49.9425
370.055
771.467
-29.6291
370.007
-21.4121
370.592
725.124
3.81526
370.163
728.233
10.0831
370.388
734.662
20.6506
370.417
743.066
26.901
370.72
753.871
39.2352
370.599
768.345
39.1135
371.231
784.848
49.7462
371.23
802.458
47.764
370.914
819.131
45.7315
369.92
830.404
30.549
369.893
836.144
15.4253
370.563
833.935
-2.83854
370.156
831.168
-3.31771
370.939
822.929
-16.8768
372.684
809.494
-34.8365
373.316
799.757
-25.6182
369.548
794.92
-12.3141
371.244
782.161
-37.4905
372.052
773.583
-22.2416
372.007
-16.1189
372.631
728.554
2.56222
371.918
731.734
6.75382
372.106
738.275
13.8186
372.209
746.745
17.961
372.534
761.527
25.0024
372.589
771.747
28.9548
373.207
787.509
32.8196
373.118
803.632
31.2795
372.725
819.386
29.8757
371.88
829.69
20.2682
371.838
835.16
10.0514
372.367
834.192
-1.66268
372.092
832.096
-1.85043
373.018
824.374
-10.9275
374.599
808.376
-21.9025
374.805
801.974
-20.986
371.775
797.331
-8.08942
373.243
784.614
-25.0153
373.942
775.938
-14.8286
373.894
-10.775
374.542
731.806
1.28376
373.594
735.015
3.39039
373.734
741.624
6.92581
373.904
750.14
8.98466
374.26
761.64
12.46
374.473
774.97
14.462
374.95
790.314
16.2894
374.89
805.476
15.5557
374.456
820.494
14.7061
373.742
830.682
10.1061
373.705
835.851
4.99153
374.076
835.29
-0.875358
373.951
833.504
-0.766036
375.004
826.126
-5.35335
376.45
814.777
-11.7319
376.183
804.27
-10.1236
373.908
799.843
-4.02638
375.187
787.169
-12.5359
375.751
778.392
-7.43268
375.707
-5.407
376.357
734.891
375.187
738.119
375.284
744.765
375.517
753.294
375.899
764.86
376.248
778.153
376.61
793.225
376.552
808.024
376.054
822.536
375.473
832.662
375.434
837.769
375.623
837.132
375.689
835.588
376.883
828.392
378.182
816.14
377.017
806.773
375.123
802.445
376.873
789.761
377.289
780.864
377.216
377.868
-19.6802
-0.968978
38.8389
0.822049
19.6392
-19.2273
0.789043
-38.7035
38.5849
-0.639956
19.1969
-19.3951
-0.423346
-38.6368
38.5352
0.506669
19.4135
-17.9171
0.370503
-35.9518
34.5033
1.21312
17.782
-19.0623
-37.3638
34.0134
2.86954
18.0948
1.44848
-15.9164
-30.5448
28.9464
1.63258
16.0549
-0.172518
-2.95233
-81.0494
159.122
3.11954
81.0268
-1.18426
-80.2144
157.636
2.10617
80.2016
-158.544
-7.0675
-79.4487
-156.38
155.224
8.43476
79.2389
-14.1201
-80.0099
-154.75
155.401
13.7684
79.7113
-14.5826
-81.4994
-157.476
154.744
16.9059
81.9095
-29.8181
-79.2106
-149.058
142.165
36.9003
79.0219
-76.8211
-11.0086
128.938
56.4059
76.4592
-12.2421
-11.728
-13.25
-136.752
-20.981
-24.9807
-29.9533
31.4908
23.7837
20.6407
-2.91934
-4.98435
4.23312
4.07089
-0.406995
1.51337
5.18337
-4.81001
-1.07142
-0.53866
-0.267842
-0.702045
-0.497262
1.58579
-0.344147
-1.05028
1.0077
-2.5011
-0.867955
-1.12248
22.0504
-6.50931
11.4454
-0.452632
-0.660772
-0.505624
-4.39787
-1.14535
-4.47998
-2.27728
-4.16852
-4.42261
-4.69464
0.0112541
-7.74356
9.72477
-1.35346
4.05417
-45.6564
3.52171
-57.3175
65.385
-14.8653
39.014
4.55042
2.02182
3.33428
648.009
12.711
331.752
-3.45475
-0.485527
-2.12738
-2.95828
642.851
23.0105
330.749
-2.70401
-4.70346
-4.613
-5.95032
638.185
52.1358
329.004
-9.46707
-13.8916
-9.71138
-14.2592
634.455
72.5959
330.987
-14.1341
-17.1486
-17.716
-19.9608
619.411
107.786
331.775
-19.3198
-22.1786
-23.9872
-27.2063
596.183
213.885
326.055
-42.1184
-56.4479
-40.4451
-51.6369
163.807
316.345
321.306
157.894
165.312
155.919
-64.563
-111.926
-72.2977
-105.305
-83.3476
-133.406
127.002
86.744
45.3847
39.919
39.9114
41.6007
-21.239
10.3904
-15.9846
22.2512
4.58205
52.8821
-116.645
-101.922
123.922
-68.5161
110.276
33.6396
-87.019
-125.285
125.517
-43.8125
96.9614
26.2294
-77.2636
-124.802
121.151
-32.3917
87.0697
139.417
-169.998
339.963
17.9209
30.9428
28.141
39.0436
-68.3426
-68.6326
-81.1098
-79.9711
-123.818
-156.586
-133.664
-161.456
153.212
143.223
151.692
29.4642
-68.0667
134.851
-33.5177
76.6834
-94.8435
313.393
19.4525
14.6914
16.239
14.7298
-70.5718
-69.9316
-76.9205
-75.2517
-135.697
-155.506
-141.563
-155.855
661.188
12.5674
337.523
658.416
25.8794
337.66
656.531
54.5285
336.471
653.708
76.0777
336.961
646.206
115.229
337.312
648.245
215.969
333.027
168.512
288.667
328.944
182.711
165.999
172.214
-80.6935
-116.193
175.665
107.542
82.1929
-18.2579
-53.9528
-45.909
53.7093
45.3662
19.0443
-16.4254
-54.4547
45.0548
8.36165
15.5452
1.91857
-19.9659
1.77109
-10.2397
44.6704
-11.5943
20.7174
1.74879
0.873133
0.0781006
-10.5239
-8.92
-8.61465
739.744
-254.267
374.866
-169.858
-194.528
-171.086
-192.44
68.7115
76.2697
64.5361
57.295
-101.631
-101.2
-96.959
-99.4547
746.663
-236.906
388.677
66.0708
49.8254
56.8465
50.5248
730.727
-156.512
382.629
43.3535
43.7578
44.2833
41.7718
738.228
-95.4288
364.856
33.4553
2.97084
33.3423
12.8015
720.261
-159.557
360.836
699.658
-117.764
352
39.9012
15.3117
41.7123
22.6223
-117.81
340.782
670.973
12.1176
342.534
669.788
27.1748
342.976
669.217
55.5924
341.973
668.57
77.4892
342.145
667.937
116.047
342.359
679.349
208.708
338.695
715.452
255.099
335.454
203.967
387.154
341.86
-112.379
-125.676
-115.372
-130.445
202.888
202.46
201.389
-126.425
220.699
108.678
84.9727
-83.9566
-81.5153
-53.756
-223.815
224.537
51.9011
82.6498
-78.2732
-5.31982
230.06
12.4659
79.1467
-0.594307
-6.37773
-2.64367
-228.463
2.72781
-227.16
-81.1454
221.225
3.84275
79.9744
0.981204
2.36752
-2.81268
790.165
-135.003
336.907
32.5267
58.2362
46.5532
80.3759
-213.744
-214.552
-213.589
-214.512
-88.9753
-87.3958
-88.6745
-88.3027
775.621
-212.372
348.625
771.02
-220.858
366.39
756.353
-145.895
368.323
748.848
-92.3873
359.845
739.696
-156.714
351.94
732.307
-116.895
348.273
-120.461
339.994
679.348
11.5524
346.832
679.245
27.3921
347.37
680.06
55.2733
346.474
681.711
76.6365
346.553
685.555
112.569
346.539
702.91
195.867
342.939
741.579
219.14
340.701
809.705
318.556
343.953
864.591
268.379
343.006
-93.1843
-58.8965
-98.5222
-71.7787
892.51
170.074
335.247
-48.5697
-49.1463
-54.1672
-48.9178
884.185
25.0482
336.452
-9.0669
3.86688
-15.5053
3.03114
-84.2214
-81.7073
-86.0375
-83.5251
862.593
-53.7987
348.126
-8.4801
48.0663
-3.83984
46.7444
828.974
-92.9197
350.959
798.483
-184.809
368.146
782.944
-200.557
362.004
768.604
-133.601
360.991
760.865
-85.6711
355.826
750.952
-148.693
351.98
743.209
-112.271
350.492
-118.02
344.704
686.661
10.9233
350.565
687.348
26.8382
351.108
689.433
53.6944
350.279
692.986
73.9237
350.336
699.825
106.292
349.922
721.419
179.999
345.857
756.588
185.498
346.512
814.206
261.658
348.607
857.55
223.183
348.498
882.994
144.782
342.744
874.917
30.1815
347.687
852.583
-33.3706
346.647
834.272
-73.7328
350.393
838.054
-177.803
363.453
790.965
-138.023
356.815
776.853
-120.382
358.075
768.966
-77.8483
355.243
744.572
-118.425
347.03
749.942
-112.713
346.201
-112.257
348.016
693.133
10.2218
353.856
694.416
25.6968
354.363
697.56
51.0545
353.583
702.625
69.7131
353.639
711.33
98.261
352.908
760.477
148.024
348.231
762.847
199.061
351.364
810.675
214.958
351.571
847.832
184.666
352.635
870.53
122.659
347.919
867.48
32.8199
351.71
851.875
-17.8053
351.022
836.209
-58.2856
354.428
813.007
-156.167
364.455
795.455
-121.245
357.116
781.771
-107.854
358.538
774.072
-70.5026
356.581
764.162
-109.336
356.199
754.46
-104.511
355.739
-104.938
351.373
698.934
9.45592
356.796
700.697
24.0747
357.255
704.693
47.5574
356.544
710.843
64.4162
356.559
720.677
89.1838
355.793
737.263
131.268
351.706
768.834
170.778
355.77
808.194
176.761
354.843
839.655
152.116
356.225
859.465
103.556
352.48
859.447
32.4654
355.519
836.844
-0.187294
354.445
835.81
-61.3969
356.556
814.16
-135.493
364.525
798.361
-105.246
357.225
785.357
-94.9519
359.324
777.957
-62.6276
358.32
767.759
-99.301
358.765
757.889
-95.4482
358.569
-96.5175
354.745
704.208
8.60417
359.451
706.345
22.0936
359.862
711.002
43.404
359.221
717.962
58.3103
359.232
728.421
79.4366
358.544
745.712
113.897
355.053
773.568
146.05
358.99
806.611
144.613
358.448
832.958
125.04
359.241
850.337
86.9344
356.137
852.28
30.4566
358.563
845.348
7.58464
357.015
835.262
-49.2394
358.876
815.306
-116.615
365.804
800.756
-90.764
358.865
788.421
-82.8681
360.779
781.317
-55.1419
360.122
770.958
-88.9343
360.858
760.955
-85.7909
360.724
-87.1239
357.471
709.014
7.68767
361.868
711.467
19.8174
362.224
716.64
38.7412
361.66
724.154
51.6666
361.674
734.948
69.3464
361.118
742.72
101.877
358.598
777.317
107.925
361.81
811.185
113.806
362.121
827.633
111.6
361.3
843.082
72.3961
359.119
846.266
27.4708
361.29
858.593
-11.1252
367.328
834.373
-29.865
368.337
816.467
-99.6499
367.177
802.534
-76.7469
360.964
790.818
-71.1267
362.441
784.06
-47.7121
362.196
773.551
-78.1773
363.233
763.478
-75.697
363.159
-77.1779
360.31
713.453
6.70194
364.11
716.147
17.3148
364.414
721.69
33.7138
363.919
729.609
44.6325
363.933
740.473
59.2011
363.449
759.54
85.3404
361.201
779.661
89.2293
363.392
801.632
91.6477
364.677
823.404
90.6548
362.7
837.428
59.3995
361.808
841.292
23.9305
363.776
838.09
-6.93863
362.697
833.573
-22.5244
363.095
783.226
-49.9852
359.801
803.852
-97.6525
357.081
792.987
-59.9922
363.952
786.597
-40.466
364.154
776.005
-67.1925
365.365
765.885
-65.2546
365.269
-66.7311
362.789
717.57
5.66579
366.194
720.452
14.6392
366.452
726.272
28.4244
366.027
734.449
37.3704
366.012
745.188
49.3273
365.294
763.076
69.7395
363.882
781.924
71.9653
365.43
800.951
72.6844
366.783
820.601
71.9431
364.724
833.237
47.7994
364.378
837.51
20.1197
366.006
836.074
-4.15446
364.892
832.949
-16.7605
365.608
822.844
-40.0018
368.74
799.413
-73.0793
367.191
794.786
-53.5009
363.298
788.787
-33.4025
366.067
778.165
-56.0519
367.501
768.071
-54.5923
367.359
-55.9919
365.203
721.426
4.57813
368.156
724.44
11.8421
368.364
730.474
22.9213
368.014
738.794
30.0165
367.899
744.85
42.7788
366.396
766.333
48.101
366.519
784.062
55.8661
367.526
801.066
55.9964
368.641
818.871
55.117
366.848
830.438
37.2628
366.699
834.881
16.2499
368.037
845.677
-8.46447
367.074
832.713
3.09868
367.96
823.574
-30.9017
370.719
807.545
-57.4543
371.742
796.793
-42.6668
367.263
790.979
-26.4947
368.058
780.346
-44.8866
369.519
770.296
-43.8046
369.266
-45.0299
367.363
725.043
3.4618
370.003
728.159
8.95136
370.165
734.325
17.289
369.886
742.778
22.5534
369.734
755.448
32.2504
368.46
769.72
35.3993
369.664
786.114
41.0371
369.668
802.132
40.5486
370.346
818.078
40.1924
368.902
829.225
27.1724
368.839
834.455
11.7258
369.86
832.327
-5.26834
369.09
832.99
3.16576
370.21
824.573
-22.4992
372.698
810.061
-43.245
373.619
798.877
-31.3039
369.367
793.231
-19.7187
370.112
782.591
-33.691
371.492
772.6
-32.9361
371.125
-33.9419
369.488
728.462
2.31501
371.755
731.655
5.99676
371.871
737.909
11.5734
371.673
746.385
15.0455
371.569
759.312
21.0751
370.84
772.637
23.451
371.834
788.287
26.966
371.542
803.19
26.4417
371.932
818.269
26.1592
370.837
828.505
17.9987
370.779
833.488
7.57838
371.534
832.589
-3.30371
371.028
833.961
2.48038
372.333
826.108
-14.6689
374.622
812.37
-29.8854
375.182
801.204
-19.8183
371.453
795.686
-13.0351
372.076
785.048
-22.4642
373.349
775.146
-21.9925
372.849
-22.7066
371.472
731.711
1.15952
373.429
734.946
3.00239
373.497
741.247
5.79522
373.383
749.707
7.52555
373.323
761.942
10.4437
372.872
775.292
11.678
373.376
790.566
13.3406
373.244
804.945
13.1186
373.403
819.341
12.8426
372.665
829.462
8.97636
372.609
834.257
3.74839
373.113
833.739
-1.71118
372.878
835.447
1.40106
374.377
827.969
-7.22636
376.484
814.86
-17.4004
376.807
803.603
-8.2313
373.576
798.224
-6.50144
374.032
787.586
-11.2504
375.171
777.78
-11.0295
374.546
-11.3924
373.387
734.795
375.022
738.049
375.034
744.366
374.996
752.814
374.979
764.648
374.859
777.943
374.994
792.972
374.866
807.395
374.751
821.33
374.382
831.415
374.328
836.229
374.558
835.615
374.594
837.578
376.321
830.316
378.218
813.121
376.811
806.21
373.801
800.857
375.723
790.18
376.714
780.434
375.93
374.997
-19.6104
-0.629375
38.7334
0.466384
19.6001
-19.1576
-0.127172
-38.5852
38.4842
0.230168
19.1557
-19.4249
-0.693028
-38.654
38.6501
0.693142
19.4288
-17.9435
-1.86858
-36.1164
34.5482
3.41988
17.9605
-17.9003
-37.7502
33.7659
4.32653
17.887
-0.328784
-16.2135
-30.7142
29.6153
1.74601
16.2394
-0.672762
-1.46294
159.014
1.67779
80.9942
-81.0224
-3.22907
-80.1833
-158.42
157.488
4.18046
80.1643
-6.89918
-79.1446
-156.107
154.577
8.45911
79.116
-19.9739
-79.5506
-153.61
154.77
18.892
79.4738
-20.2067
-81.9955
-157.79
155.041
22.9779
81.9735
-26.4695
-78.89
-148.871
141.284
34.1586
78.7894
-14.6986
-76.3151
128.894
70.4373
76.5674
-16.7452
-15.1029
-17.1356
-135.901
-21.0629
-31.9743
-30.8233
34.2139
28.5768
21.0701
-4.96251
-4.07257
5.2633
4.72435
-0.949379
-1.61162
0.94561
0.502162
-3.4064
2.30756
1.26192
-2.96008
1.0793
-3.76404
4.80168
-3.0971
3.93675
-17.1805
2.54888
-7.03488
44.3913
-25.1251
27.5476
1.5494
2.8195
1.5471
-10.3591
-8.59942
-12.1207
-3.96299
-0.0452871
-11.2109
11.8555
-1.49824
4.86088
-37.1249
0.186619
-62.7591
67.4558
-11.1064
40.9686
0.881279
0.468597
1.02005
649.494
11.6098
331.791
-2.04925
-3.29417
-1.86165
-3.24624
643.793
27.3593
330.693
-4.82553
-5.96791
-4.78331
-6.0239
640.709
51.2691
328.932
-9.5714
-14.398
-9.63724
-14.505
638.318
82.7852
330.993
-18.852
-21.2638
-19.0339
-21.2469
622.358
123.922
331.703
-25.5546
-28.4723
-25.4907
-28.3701
601.065
203.889
325.894
-39.7774
-51.5546
-39.5303
-51.5698
147.729
358.296
319.075
154.941
147.149
154.643
-76.9071
-101.86
-77.924
-102.769
-80.4437
-151.864
145.597
80.3795
39.6243
37.4858
39.5952
37.3559
-23.4087
-17.7309
23.3866
19.444
-1.69069
46.3987
-122.576
-111.854
132.142
-58.0494
113.929
43.0222
-102.275
-140.315
144.996
-48.911
103.478
36.4897
-146.329
-93.3628
146.021
-39.314
96.4855
154.806
-156.043
356.141
37.8587
42.3058
37.4487
34.5131
-148.222
-169.836
-155.54
-171.597
160.369
156.945
160.801
32.1371
-79.9922
150.682
-33.2825
85.2567
-84.5158
335.496
17.8605
14.3474
20.5119
15.0871
-149.611
-160.287
-152.94
-161.402
661.014
11.6789
337.553
658.272
30.1174
337.646
655.885
53.6286
336.502
653.09
85.5109
337.033
646.29
130.79
337.246
644.389
205.527
333.291
164.787
336.272
328.313
169.08
164.527
168.653
-134.712
-82.3047
173.252
126.042
82.5105
-19.7591
-50.355
-48.4015
52.283
46.453
19.7797
-16.5981
-55.6097
46.2825
10.4939
16.8838
-1.45205
1.96555
-10.5503
-20.4814
19.9785
46.1769
-10.7732
1.97985
1.43184
1.6851
-10.4679
-10.3462
-10.5988
775.502
-208.234
355.276
-184.654
-193.872
-186.437
-195.289
58.3235
50.6707
51.6252
51.9534
752.867
-189.8
380.429
54.7798
52.8711
57.0365
55.9957
739.198
-165.428
376.212
46.8408
43.8691
49.1566
45.6319
722.447
-132.95
366.369
37.782
30.7725
40.4489
39.1708
717.031
-148.643
358.843
712.669
-124.829
357.528
37.836
25.7446
32.4817
27.5863
-91.0503
350.279
670.779
11.3579
342.578
669.692
31.2006
342.982
668.582
54.6834
342.03
667.76
86.2546
342.225
667.829
130.77
342.312
675.122
197.968
338.963
715.412
296.111
335.328
201.996
411.228
341.692
-117.212
-133.689
-116.664
-133.889
200.933
201.922
200.956
-131.912
-84.9683
219.412
114.71
84.7555
-57.6761
-82.0555
-224.123
224.172
58.2654
81.4178
-6.76661
-79.3422
229.599
19.2207
78.9984
-3.59751
-6.92503
-3.7789
-227.406
5.70433
-227.141
-80.9048
218.031
-17.769
81.6421
5.52406
7.02839
7.88634
765.644
-180.312
342.123
54.4016
79.1968
60.1006
68.9637
-211.295
-214.725
-212.297
-214.883
778.52
-225.984
353.499
771.998
-181.628
364.75
756.941
-149.24
367.185
746.658
-123.12
360.286
738.82
-142.042
353.167
731.123
-120.501
351.628
-92.5182
345.321
679.163
10.8635
346.886
679.173
31.1641
347.399
679.415
54.3741
346.544
680.84
84.7544
346.63
685.309
126.329
346.513
697.878
185.381
342.959
736.185
257.806
340.701
813.131
334.137
344.1
868.139
292.475
343.098
-99.7317
-74.4563
-99.2824
-74.0993
893.808
182.183
334.826
-55.4731
-48.4964
-55.1652
-48.2914
884.239
28.2608
336.892
-16.2559
6.22706
-16.3451
7.25333
854.07
-40.6655
337.404
12.7787
31.0621
19.8197
17.8997
822.376
-148.969
351.318
801.497
-194.069
357.114
784.3
-160.915
358.49
769.117
-134.235
361.167
758.247
-112.441
356.009
749.636
-133.158
351.697
741.561
-113.709
351.762
-90.2387
347.579
686.483
10.2753
350.63
687.282
30.3199
351.157
688.766
52.8113
350.361
692.076
81.3742
350.409
699.418
119.012
349.899
713.92
171.671
345.068
750.818
221.26
346.164
808.949
276.09
348.528
855.561
245.962
348.403
881.172
156.665
342.655
874.101
37.3396
345.686
853.17
-19.7329
346.648
788.695
-68.1137
334.019
808.375
-192.673
342.38
791.116
-141.746
354.905
776.538
-120.215
358.629
765.862
-102.098
355.572
742.713
-115.966
352.975
748.242
-126.426
353.381
-85.9091
349.937
692.952
9.62822
353.919
694.356
28.8649
354.416
696.872
50.2084
353.672
701.676
76.5098
353.702
710.755
109.917
352.926
726.77
155.766
348.123
758.362
189.04
351.996
805.66
228.705
351.66
845.876
205.788
352.595
868.833
133.47
348.161
866.977
40.1646
350.748
852.155
-4.70489
350.819
836.987
-51.1915
352.68
811.799
-168.018
364.991
795.515
-123.945
355.602
781.373
-106.851
359.314
770.927
-92.1144
357.04
762.511
-106.735
355.374
752.522
-116.602
355.895
-80.4704
352.874
698.744
8.91136
356.849
700.617
26.9504
357.299
703.992
46.767
356.613
709.889
70.5511
356.623
720.028
99.7465
355.827
737.693
138.173
351.636
764.473
161.91
356.123
803.462
189.653
354.908
837.78
171.436
356.262
857.822
113.226
352.686
858.733
39.6506
355.125
848.871
5.15144
354.452
836.313
-38.004
355.928
813.243
-145.804
365.382
798.473
-107.641
355.693
784.989
-93.6384
359.594
774.851
-81.822
358.165
766.118
-96.6318
357.387
755.861
-105.926
358.146
-74.0044
355.729
703.998
8.11876
359.499
706.25
24.6634
359.9
710.279
42.6919
359.269
716.987
63.8128
359.265
727.784
88.9241
358.572
745.918
120.085
355.01
769.403
138.301
359.118
802.516
156.495
358.494
831.192
142.675
359.329
848.74
95.5032
356.314
851.464
36.9877
358.504
854.708
-3.38574
362.311
835.599
-23.0673
363.051
814.377
-125.321
366.543
800.772
-92.6862
357.516
787.912
-81.1958
361.194
778.127
-72.0362
360.121
769.212
-86.4847
359.62
758.742
-95.0728
360.337
-66.9586
358.223
708.796
7.24307
361.916
711.347
22.0748
362.264
715.885
38.1175
361.7
723.16
56.5123
361.701
734.324
77.7363
361.145
752.922
101.557
358.529
773.529
117.731
361.775
801.93
128.051
362.167
826
118.522
361.387
841.536
79.8278
359.261
845.32
33.1735
361.323
861.223
-14.4817
362.523
834.605
9.13969
362.751
815.344
-106.772
367.89
802.464
-78.3975
359.557
790.288
-69.1946
362.613
780.858
-62.309
361.897
771.828
-75.9131
361.686
761.146
-83.7168
362.482
-59.3678
360.769
713.218
6.32019
364.142
716.012
19.2542
364.443
720.925
33.1708
363.955
728.599
48.817
363.956
739.859
66.4591
363.47
756.374
84.9876
361.258
776.074
98.015
363.411
800.091
104.01
364.705
821.854
96.71
362.752
835.914
65.7058
361.872
840.213
28.8388
363.815
835.664
-9.76888
362.535
833.765
11.1458
362.99
798.08
-80.4719
369.186
803.671
-89.1281
362.22
792.397
-57.9759
364.005
783.324
-52.9029
363.819
774.251
-65.2435
363.765
763.412
-72.1144
364.502
-51.3819
363.073
717.331
5.32956
366.221
720.296
16.2674
366.476
725.486
27.9552
366.056
733.409
40.8782
366.031
744.433
55.4376
365.294
759.996
69.3862
363.924
778.564
79.436
365.444
799.502
83.042
366.816
819.146
77.0061
364.787
831.756
53.0663
364.411
836.331
24.2662
366.006
833.285
-6.60302
364.773
833.121
11.4411
365.478
816.687
-65.5759
370.279
799.397
-69.6578
365.011
794.142
-54.0026
364.578
785.488
-43.7744
365.59
776.393
-54.4329
365.782
765.457
-60.2814
366.457
-43.1169
365.321
721.174
4.30654
368.176
724.275
13.1515
368.382
729.673
22.542
368.032
737.708
32.8439
367.9
747.5
45.6664
366.378
763.326
53.465
366.616
780.941
61.7985
367.552
799.649
64.3242
368.655
817.426
59.1878
366.892
828.999
41.4851
366.71
833.686
19.6138
368.005
831.705
-4.50577
366.959
832.811
10.4649
367.833
804.7
-30.9733
364.227
806.809
-63.1601
363.135
796.128
-42.5019
366.44
787.687
-34.7824
367.506
778.556
-43.5862
367.799
767.558
-48.3568
368.336
-34.6839
367.407
724.781
3.25249
370.019
727.984
9.93828
370.178
733.51
17.0052
369.899
741.682
24.6821
369.727
752.931
34.5017
368.379
767.033
39.2743
369.755
783.271
45.5358
369.696
800.78
46.8145
370.35
816.683
43.2619
368.928
827.827
30.3558
368.827
833.203
14.2969
369.804
831.15
-2.32485
368.964
833.053
8.7161
370.057
824.642
-22.5889
372.725
809.41
-48.5023
374.192
798.122
-30.4494
368.6
789.936
-25.923
369.437
780.815
-32.6968
369.721
769.749
-36.3363
370.167
-26.1222
369.437
728.195
2.17478
371.772
731.464
6.66071
371.881
737.088
11.3719
371.686
745.312
16.4645
371.565
757.345
22.5087
370.803
770.246
26.3193
371.891
785.738
30.0301
371.558
801.905
30.6466
371.936
816.92
28.2268
370.86
827.15
20.1364
370.771
832.198
9.30249
371.484
831.339
-1.33413
370.897
834.003
6.1832
372.203
826.142
-14.7385
374.632
811.97
-34.8812
375.733
800.38
-18.1742
370.765
792.37
-17.1845
371.345
783.288
-21.7997
371.531
772.171
-24.2505
371.877
-17.457
371.347
731.439
1.083
373.436
734.759
3.33421
373.506
740.429
5.69898
373.388
748.662
8.23468
373.323
760.033
11.1361
372.877
773.168
13.1676
373.395
788.295
14.9008
373.25
803.722
15.2247
373.4
818.053
13.8819
372.682
828.15
10.0498
372.601
832.912
4.61415
373.043
832.458
-0.71821
372.717
835.489
3.26231
374.268
828.007
-7.25366
376.481
815.061
-22.5501
377.421
802.741
-5.23614
372.956
794.9
-8.57732
373.263
785.814
-10.9213
373.376
774.694
-12.1643
373.577
-8.76178
373.242
734.516
375.028
737.844
375.042
743.544
374.997
751.788
374.972
762.935
374.85
776.104
374.994