/*--------------------------------*- C++ -*----------------------------------*\
  =========                 |
  \\      /  F ield         | OpenFOAM: The Open Source CFD Toolbox
   \\    /   O peration     | Website:  https://openfoam.org
    \\  /    A nd           | Version:  10
     \\/     M anipulation  |
\*---------------------------------------------------------------------------*/
FoamFile
{
    format      ascii;
    class       volVectorField;
    location    "2000";
    object      U;
}
// * * * * * * * * * * * * * * * * * * * * * * * * * * * * * * * * * * * * * //

dimensions      [0 1 -1 0 0 0 0];

internalField   nonuniform List<vector> 
55398
(
(20.3546 0.277265 3.57851)
(20.8844 0.40536 3.57055)
(20.5154 0.0885158 3.56682)
(20.2085 0.57877 3.52436)
(19.787 0.805834 3.50079)
(17.8777 0.976056 3.34046)
(21.1379 0.172335 3.72266)
(21.3098 0.318447 3.71947)
(21.1009 0.417123 3.71372)
(20.8491 0.793821 3.69997)
(20.4356 1.15879 3.68857)
(19.6353 1.8547 3.66868)
(18.1442 3.37658 3.62618)
(13.9893 6.39243 3.35624)
(-3.08176 0.182779 0.0736435)
(-3.48678 0.125661 -0.372504)
(-1.37296 0.144363 0.371467)
(1.16953 -0.00812886 1.06903)
(3.99774 -0.0650346 1.93914)
(5.71182 -0.0356334 2.59788)
(21.772 0.196082 3.83158)
(21.7769 0.350253 3.82803)
(21.6566 0.644219 3.82063)
(21.4379 1.01995 3.81526)
(21.0927 1.5933 3.79951)
(20.5624 2.63583 3.78689)
(19.8783 4.91546 3.81824)
(19.2794 8.17846 3.63522)
(0.337786 -0.498856 4.53997)
(10.4146 -1.37123 3.72361)
(10.5414 -1.21307 3.11024)
(11.4598 -0.905643 2.88793)
(11.6774 -0.748827 2.66306)
(14.4527 -0.6462 2.94163)
(15.9547 -0.612141 3.0333)
(22.1591 0.165723 3.90187)
(22.1629 0.389482 3.89622)
(22.0843 0.684793 3.88972)
(21.935 1.09881 3.88508)
(21.7512 1.719 3.87376)
(21.5039 2.78336 3.85669)
(21.6316 4.79657 3.86312)
(21.989 7.34992 3.7698)
(26.7086 10.8284 3.67598)
(28.3633 3.45341 3.69364)
(23.9639 -2.96219 3.92511)
(24.6611 -2.59805 5.0663)
(25.0088 -2.24708 4.61077)
(24.5477 -2.01409 4.36542)
(24.0719 -1.71396 4.14788)
(23.8365 -1.43381 3.92349)
(23.7618 -1.24462 3.83021)
(23.6671 -1.06774 3.71136)
(22.4825 0.156795 3.95999)
(22.4901 0.410604 3.95395)
(22.4516 0.719001 3.94816)
(22.3795 1.14904 3.94446)
(22.3304 1.7786 3.93633)
(22.3519 2.75871 3.92533)
(22.7909 4.42329 3.91983)
(24.771 6.22894 3.87446)
(27.5304 6.72102 3.63188)
(30.2449 3.85905 3.56286)
(31.6802 1.94786 3.6873)
(29.6222 -2.64801 3.63945)
(27.5968 -2.41048 4.0419)
(26.4587 -2.23477 4.3747)
(25.9844 -2.10855 4.3031)
(25.4772 -1.93859 4.15891)
(25.0325 -1.73132 4.04002)
(24.703 -1.45593 3.91823)
(24.5897 -1.3502 3.87417)
(24.3883 -1.21429 3.81323)
(22.7615 0.148542 4.00983)
(22.7756 0.416613 4.00404)
(22.7738 0.731662 3.99909)
(22.7696 1.15782 3.996)
(22.8322 1.75652 3.98972)
(23.0203 2.63778 3.98022)
(23.665 3.84622 3.97745)
(25.4021 5.37141 3.93457)
(28.1908 4.54587 3.88467)
(29.8987 2.94621 3.86174)
(30.7994 1.14205 3.99711)
(29.4133 -1.33768 3.92313)
(27.7912 -1.92833 4.06573)
(26.9275 -2.0303 4.18305)
(26.4381 -1.97516 4.18283)
(25.9188 -1.84551 4.12244)
(25.4941 -1.68044 4.06309)
(25.1228 -1.45065 3.99059)
(24.9829 -1.35985 3.96)
(24.698 -1.25478 3.91913)
(23.0067 0.140918 4.05356)
(23.0286 0.412706 4.04826)
(23.0586 0.725144 4.04387)
(23.1147 1.13294 4.04283)
(23.2558 1.68311 4.03941)
(23.5704 2.44404 4.0293)
(24.2559 3.36407 4.02726)
(25.7841 4.33576 4.00177)
(27.8947 3.79276 3.96483)
(29.4025 2.33445 3.96441)
(29.8286 0.516259 3.95832)
(29.1034 -1.11632 3.96282)
(28.0835 -1.59951 4.03255)
(27.2555 -1.76212 4.11917)
(26.7493 -1.76337 4.14378)
(26.2124 -1.69183 4.11445)
(25.792 -1.58613 4.07973)
(25.3868 -1.40578 4.03624)
(25.2219 -1.33058 4.01707)
(24.871 -1.24629 3.99034)
(23.2255 0.133121 4.09251)
(23.2553 0.399581 4.08788)
(23.3121 0.701275 4.084)
(23.417 1.08164 4.08494)
(23.6183 1.57696 4.08387)
(24.0058 2.20765 4.07934)
(24.7036 2.91949 4.06919)
(26.0083 3.55657 4.05056)
(27.6862 3.18699 4.02706)
(28.9746 2.01467 4.02889)
(29.4018 0.51702 4.02113)
(28.9222 -0.774266 4.02552)
(28.16 -1.26459 4.05273)
(27.4093 -1.46399 4.10775)
(26.9101 -1.52199 4.12879)
(26.391 -1.49594 4.11376)
(25.9873 -1.42311 4.09219)
(25.5759 -1.2874 4.06817)
(25.3939 -1.22852 4.05758)
(25.0097 -1.16767 4.04424)
(23.4233 0.125634 4.12835)
(23.4607 0.378611 4.12598)
(23.5397 0.662908 4.12353)
(23.6802 1.01202 4.12358)
(23.9256 1.44577 4.12342)
(24.351 1.96577 4.11505)
(25.0431 2.51362 4.10451)
(26.1612 2.94661 4.08845)
(27.5265 2.66738 4.07266)
(28.6162 1.724 4.07687)
(29.0219 0.528193 4.07637)
(28.725 -0.543248 4.07376)
(28.1193 -1.06055 4.08853)
(27.4743 -1.28608 4.12651)
(27.0026 -1.37127 4.14749)
(26.5171 -1.37211 4.14186)
(26.1304 -1.32472 4.12853)
(25.7186 -1.21417 4.11143)
(25.5247 -1.16119 4.10324)
(25.1144 -1.10735 4.09121)
(23.6034 0.115765 4.16097)
(23.648 0.351241 4.16054)
(23.7449 0.613259 4.15929)
(23.913 0.927397 4.15815)
(24.1894 1.30247 4.15618)
(24.6307 1.73373 4.14968)
(25.297 2.14922 4.14131)
(26.2709 2.43355 4.12553)
(27.4057 2.2122 4.11102)
(28.3309 1.45518 4.11722)
(28.7123 0.502145 4.1204)
(28.5332 -0.389018 4.11519)
(28.0742 -0.85363 4.1218)
(27.5219 -1.07549 4.14748)
(27.0831 -1.16365 4.16282)
(26.6258 -1.18265 4.16054)
(26.2557 -1.155 4.15159)
(25.847 -1.07552 4.14231)
(25.6439 -1.03472 4.13862)
(25.2095 -0.995721 4.13291)
(23.7684 0.10518 4.18997)
(23.819 0.319115 4.18966)
(23.9304 0.554881 4.18869)
(24.1196 0.830827 4.18764)
(24.4161 1.15088 4.18574)
(24.8623 1.50344 4.17963)
(25.4978 1.82435 4.17415)
(26.3555 2.01114 4.16416)
(27.3136 1.82744 4.15292)
(28.1067 1.22656 4.15446)
(28.4648 0.460119 4.15711)
(28.3733 -0.26047 4.15389)
(28.0188 -0.682537 4.15624)
(27.548 -0.904111 4.17323)
(27.1385 -1.00451 4.1852)
(26.709 -1.03809 4.18605)
(26.3542 -1.02889 4.18076)
(25.9511 -0.970484 4.17561)
(25.741 -0.937351 4.17336)
(25.2926 -0.903375 4.1693)
(23.9208 0.0932993 4.21673)
(23.9764 0.282948 4.21647)
(24.0989 0.490212 4.21564)
(24.3035 0.727906 4.21477)
(24.6127 0.996158 4.21294)
(25.056 1.28286 4.20945)
(25.658 1.52856 4.20328)
(26.4245 1.64971 4.19634)
(27.2462 1.49622 4.19112)
(27.9376 1.02074 4.18826)
(28.2712 0.409434 4.18827)
(28.2366 -0.17705 4.18658)
(27.9677 -0.541548 4.18746)
(27.5673 -0.750542 4.19893)
(27.1869 -0.84657 4.20744)
(26.7856 -0.881198 4.20978)
(26.443 -0.880476 4.20738)
(26.0464 -0.836844 4.20492)
(25.8311 -0.810103 4.20384)
(25.37 -0.78299 4.20125)
(24.0622 0.0804212 4.2416)
(24.1218 0.243715 4.24137)
(24.2528 0.420814 4.2407)
(24.4683 0.620413 4.2399)
(24.7846 0.840239 4.23848)
(25.2216 1.06805 4.23556)
(25.7926 1.25412 4.23048)
(26.4856 1.33453 4.22537)
(27.2066 1.20659 4.22258)
(27.8203 0.830166 4.22081)
(28.1269 0.354085 4.21973)
(28.13 -0.117187 4.21893)
(27.9223 -0.42506 4.21939)
(27.5844 -0.609797 4.22529)
(27.2303 -0.696947 4.23241)
(26.8498 -0.733317 4.23498)
(26.5193 -0.739678 4.23407)
(26.1295 -0.71114 4.233)
(25.9108 -0.692095 4.23235)
(25.4424 -0.672108 4.23061)
(24.1942 0.0667496 4.26481)
(24.2569 0.202115 4.26462)
(24.3941 0.347965 4.26407)
(24.6171 0.509819 4.26342)
(24.936 0.685751 4.2621)
(25.366 0.861863 4.25958)
(25.9101 0.999841 4.2558)
(26.5446 1.05406 4.25238)
(27.1923 0.950545 4.25025)
(27.7448 0.659673 4.24984)
(28.0308 0.285382 4.24884)
(28.058 -0.0761372 4.24916)
(27.8952 -0.32527 4.25006)
(27.6053 -0.478898 4.25349)
(27.2741 -0.55761 4.2575)
(26.9133 -0.592326 4.25917)
(26.5931 -0.601471 4.25838)
(26.2099 -0.581656 4.25768)
(25.9896 -0.566992 4.25723)
(25.5158 -0.550941 4.25606)
(24.3179 0.0524738 4.28659)
(24.3828 0.158773 4.28643)
(24.5246 0.272689 4.286)
(24.7525 0.39745 4.28548)
(25.0729 0.53246 4.28429)
(25.4942 0.661651 4.28246)
(26.0195 0.760628 4.27978)
(26.5999 0.797068 4.27762)
(27.2339 0.70975 4.27642)
(27.6706 0.507362 4.27645)
(28.0381 0.235879 4.27542)
(28.0271 -0.0501506 4.27723)
(27.8927 -0.243415 4.27809)
(27.6343 -0.364146 4.27953)
(27.3244 -0.426864 4.28167)
(26.9804 -0.455707 4.2826)
(26.668 -0.465039 4.28191)
(26.2904 -0.452289 4.28147)
(26.0691 -0.442005 4.28115)
(25.5922 -0.430671 4.28035)
(24.4344 0.0377558 4.3071)
(24.5008 0.114193 4.30698)
(24.6457 0.195741 4.30666)
(24.8767 0.284386 4.30629)
(25.1981 0.378912 4.30525)
(25.6129 0.468832 4.30415)
(26.1198 0.536391 4.30231)
(26.6736 0.556016 4.30091)
(27.2476 0.499379 4.30035)
(27.6925 0.351056 4.30027)
(27.9771 0.151848 4.30012)
(28.0235 -0.0231879 4.30119)
(27.9163 -0.163217 4.30187)
(27.6819 -0.252006 4.30284)
(27.388 -0.299706 4.30434)
(27.0558 -0.322561 4.30521)
(26.7495 -0.331254 4.30456)
(26.3762 -0.323639 4.30418)
(26.1542 -0.31685 4.30372)
(25.675 -0.309005 4.30297)
(24.5444 0.0227422 4.32647)
(24.6118 0.0687885 4.32639)
(24.7586 0.117756 4.3262)
(24.9915 0.170825 4.32595)
(25.313 0.226311 4.32546)
(25.7235 0.279579 4.3246)
(26.2184 0.318137 4.32363)
(26.7523 0.33047 4.32299)
(27.2995 0.29423 4.32283)
(27.7272 0.212414 4.32294)
(28.0083 0.0859376 4.32313)
(28.0512 -0.00956578 4.32376)
(27.9591 -0.0934925 4.3243)
(27.7409 -0.147567 4.32499)
(27.4579 -0.177213 4.32619)
(27.135 -0.191218 4.32666)
(26.833 -0.197158 4.32602)
(26.4632 -0.193159 4.32543)
(26.2413 -0.189381 4.32504)
(25.7614 -0.185024 4.32433)
(24.6484 0.00758082 4.34479)
(24.7162 0.022939 4.34471)
(24.8638 0.0392529 4.34459)
(25.0974 0.056866 4.34445)
(25.4189 0.0751812 4.34424)
(25.8267 0.0923939 4.34393)
(26.3172 0.104321 4.34367)
(26.8363 0.108458 4.34352)
(27.3896 0.0953484 4.34355)
(27.7776 0.068031 4.34371)
(28.0934 0.0375042 4.34396)
(28.102 -0.00659671 4.34452)
(28.0264 -0.0337392 4.34498)
(27.8178 -0.0512428 4.34535)
(27.5399 -0.0607566 4.34566)
(27.2196 -0.065481 4.34514)
(26.9199 -0.0674914 4.34434)
(26.5508 -0.0660766 4.34346)
(26.3282 -0.0647438 4.34274)
(25.847 -0.0631054 4.34207)
(20.3562 0.26124 3.58084)
(20.8982 0.394884 3.58078)
(20.5574 0.100718 3.576)
(20.3755 0.614247 3.56172)
(19.6772 0.77508 3.49388)
(18.4214 1.06922 3.42484)
(21.1525 0.162472 3.72416)
(21.3265 0.3221 3.7229)
(21.1308 0.418501 3.71953)
(20.8873 0.789806 3.70674)
(20.4705 1.15692 3.68487)
(19.6821 1.8706 3.66551)
(18.2137 3.41574 3.49785)
(13.5477 6.13342 3.22069)
(-3.79243 0.32808 1.42296)
(-2.93296 0.261309 -0.213983)
(-0.407626 0.0924881 0.167791)
(2.08117 0.0117394 0.496206)
(4.45736 0.0416188 0.785175)
(8.06535 -0.322297 1.90629)
(21.7796 0.192922 3.8356)
(21.7814 0.35159 3.83457)
(21.663 0.644331 3.82776)
(21.4521 1.02038 3.81579)
(21.1137 1.59762 3.80848)
(20.6139 2.6357 3.75647)
(19.9809 4.89638 3.66365)
(19.4978 8.1734 3.57496)
(4.49402 -2.70352 6.13038)
(16.5708 -2.6223 4.91252)
(16.7992 -2.25707 4.29322)
(16.7578 -1.71067 3.82167)
(18.9109 -1.44525 3.59906)
(18.4003 -1.12216 3.37978)
(19.8859 -0.875076 3.48119)
(22.1628 0.164851 3.90478)
(22.1658 0.389703 3.90387)
(22.0876 0.685471 3.89837)
(21.9441 1.10004 3.88579)
(21.7654 1.72115 3.88029)
(21.5402 2.78523 3.82818)
(21.7149 4.73779 3.75783)
(22.008 7.29911 3.75655)
(26.6332 11.221 3.46935)
(27.9686 3.76473 3.13262)
(23.1047 -2.74262 4.14634)
(25.5384 -3.09185 4.4784)
(25.176 -2.58735 4.53117)
(24.711 -2.20545 4.40687)
(24.2194 -1.89982 4.26121)
(23.9397 -1.51715 4.09346)
(23.8837 -1.35714 4.01713)
(23.7598 -1.10634 3.87374)
(22.4852 0.156642 3.96255)
(22.4925 0.410876 3.96171)
(22.4546 0.719501 3.95699)
(22.3868 1.14976 3.94562)
(22.3401 1.77943 3.9405)
(22.3825 2.7533 3.89736)
(22.8359 4.39395 3.85955)
(24.7887 6.10554 3.86947)
(27.5243 6.75767 3.8511)
(30.1464 3.7087 3.8216)
(31.5343 1.10163 3.67741)
(29.633 -2.42434 3.7531)
(27.5877 -2.60198 4.05015)
(26.5677 -2.43875 4.27852)
(26.009 -2.26774 4.32464)
(25.4578 -2.06871 4.22718)
(25.0225 -1.8479 4.13022)
(24.6974 -1.51702 4.01291)
(24.598 -1.39986 3.96621)
(24.4024 -1.23151 3.90225)
(22.7635 0.148361 4.01209)
(22.7775 0.416672 4.01137)
(22.7763 0.731728 4.0073)
(22.7756 1.15777 3.99745)
(22.8393 1.75576 3.99255)
(23.0429 2.62881 3.95922)
(23.6924 3.82398 3.94152)
(25.4105 5.2934 3.93005)
(28.1782 4.50184 3.94224)
(29.9042 2.99366 3.90805)
(30.3777 0.338121 3.95726)
(29.4741 -1.15842 3.99553)
(27.9604 -1.89895 4.10565)
(27.0175 -2.09082 4.1942)
(26.4559 -2.06167 4.21173)
(25.8968 -1.92288 4.15333)
(25.4731 -1.75342 4.09938)
(25.1038 -1.49473 4.03831)
(24.9747 -1.3941 4.01255)
(24.6985 -1.26503 3.97333)
(23.0084 0.140809 4.05551)
(23.0303 0.412676 4.05493)
(23.0607 0.724837 4.05133)
(23.1187 1.13248 4.04297)
(23.2621 1.68165 4.03769)
(23.5828 2.43338 4.01408)
(24.2777 3.33811 4.00089)
(25.7957 4.29388 4.00285)
(27.8868 3.75984 4.01836)
(29.3868 2.34096 4.00021)
(29.8261 0.418764 4.02293)
(29.1064 -1.17396 4.01808)
(28.107 -1.67592 4.05984)
(27.2838 -1.82325 4.12354)
(26.7496 -1.8222 4.15068)
(26.199 -1.73069 4.12896)
(25.7838 -1.6108 4.09805)
(25.3812 -1.41554 4.06175)
(25.2228 -1.33313 4.04371)
(24.8787 -1.23827 4.02136)
(23.2268 0.13309 4.09416)
(23.2566 0.399476 4.09367)
(23.3138 0.700635 4.09042)
(23.4197 1.08128 4.08382)
(23.6228 1.57336 4.07713)
(24.015 2.20677 4.06566)
(24.7124 2.90248 4.05785)
(26.0116 3.5298 4.05742)
(27.6762 3.17134 4.06503)
(28.9664 2.00342 4.05267)
(29.3977 0.507613 4.06337)
(28.9307 -0.768112 4.07046)
(28.1667 -1.29222 4.09892)
(27.4246 -1.50712 4.14068)
(26.9064 -1.57972 4.1537)
(26.3804 -1.54458 4.13795)
(25.9795 -1.46027 4.11448)
(25.5679 -1.30776 4.09083)
(25.3905 -1.23708 4.07904)
(25.0107 -1.16244 4.06431)
(23.424 0.125394 4.12894)
(23.4615 0.378603 4.1281)
(23.541 0.662229 4.12522)
(23.6831 1.01079 4.11987)
(23.9297 1.44431 4.1148)
(24.3557 1.9604 4.11014)
(25.0462 2.50559 4.10251)
(26.1621 2.9298 4.10134)
(27.5215 2.65159 4.10729)
(28.6108 1.70904 4.09978)
(29.0175 0.528551 4.10195)
(28.7266 -0.548385 4.10798)
(28.1243 -1.08397 4.12424)
(27.484 -1.31316 4.14792)
(27.0031 -1.3975 4.16091)
(26.5117 -1.38694 4.15448)
(26.1272 -1.33104 4.14086)
(25.715 -1.21609 4.12656)
(25.5229 -1.15943 4.11905)
(25.1145 -1.09819 4.10685)
(23.6037 0.115866 4.16067)
(23.6484 0.351211 4.15972)
(23.7461 0.612634 4.15723)
(23.9157 0.925414 4.15286)
(24.1928 1.30069 4.14907)
(24.6337 1.72921 4.14527)
(25.2986 2.14779 4.14056)
(26.2708 2.42803 4.14053)
(27.401 2.20139 4.14244)
(28.3275 1.44216 4.13765)
(28.7089 0.501759 4.13645)
(28.5336 -0.393979 4.14247)
(28.0764 -0.871452 4.15247)
(27.5284 -1.09659 4.16737)
(27.0817 -1.18856 4.17541)
(26.6213 -1.1993 4.17162)
(26.2522 -1.16538 4.1617)
(25.8433 -1.08105 4.15216)
(25.6414 -1.03643 4.14713)
(25.2111 -0.989311 4.14115)
(23.7687 0.105183 4.18972)
(23.8195 0.319077 4.18889)
(23.9315 0.554543 4.1868)
(24.1218 0.829602 4.18339)
(24.4189 1.14971 4.18037)
(24.8638 1.49927 4.1775)
(25.4993 1.81972 4.17409)
(26.3571 2.00304 4.17271)
(27.3105 1.8182 4.17184)
(28.106 1.21371 4.17037)
(28.4626 0.457164 4.1697)
(28.3724 -0.262174 4.17533)
(28.0179 -0.693836 4.18257)
(27.5523 -0.916383 4.19096)
(27.1379 -1.01911 4.19571)
(26.7065 -1.04703 4.19472)
(26.352 -1.03217 4.18819)
(25.9486 -0.972022 4.18279)
(25.739 -0.936957 4.1798)
(25.2936 -0.896864 4.17578)
(23.921 0.0932964 4.21654)
(23.9768 0.282919 4.21588)
(24.0999 0.489927 4.21419)
(24.3053 0.726987 4.21152)
(24.6149 0.994776 4.20917)
(25.0579 1.28077 4.20673)
(25.6592 1.52433 4.20502)
(26.4252 1.64252 4.20353)
(27.2454 1.49119 4.2014)
(27.9383 1.0105 4.2011)
(28.2692 0.408244 4.19994)
(28.2349 -0.178283 4.20749)
(27.9655 -0.550852 4.21229)
(27.5699 -0.762221 4.21523)
(27.186 -0.858983 4.2171)
(26.7832 -0.890012 4.21636)
(26.4417 -0.883882 4.21242)
(26.0447 -0.839055 4.20918)
(25.8298 -0.810636 4.20749)
(25.3713 -0.778352 4.20538)
(24.0623 0.0804193 4.24146)
(24.1221 0.243682 4.24094)
(24.2535 0.420557 4.23963)
(24.4697 0.619584 4.23762)
(24.7862 0.839191 4.23583)
(25.2231 1.06582 4.2341)
(25.7936 1.25036 4.23304)
(26.4863 1.3291 4.23178)
(27.2056 1.20185 4.22975)
(27.8201 0.823719 4.22915)
(28.1261 0.351393 4.22816)
(28.1298 -0.118678 4.23319)
(27.922 -0.429513 4.23675)
(27.5845 -0.618143 4.23725)
(27.2303 -0.704368 4.23855)
(26.8478 -0.739161 4.23907)
(26.5182 -0.742061 4.2372)
(26.128 -0.712608 4.23571)
(25.9097 -0.692037 4.23491)
(25.4437 -0.667405 4.23379)
(24.1943 0.0667486 4.26472)
(24.2571 0.202084 4.26434)
(24.3947 0.347733 4.26336)
(24.6181 0.509186 4.26191)
(24.9372 0.684578 4.26096)
(25.3669 0.859899 4.25949)
(25.9109 0.996697 4.25889)
(26.5451 1.04976 4.25788)
(27.1917 0.945956 4.25567)
(27.7451 0.654125 4.2551)
(28.0301 0.283239 4.25455)
(28.058 -0.078323 4.25716)
(27.8951 -0.329349 4.25848)
(27.6058 -0.484656 4.2602)
(27.2743 -0.563795 4.26126)
(26.9124 -0.596849 4.26241)
(26.5926 -0.603193 4.2612)
(26.2089 -0.582769 4.26005)
(25.9889 -0.566935 4.25943)
(25.517 -0.547335 4.2585)
(24.318 0.0524723 4.28654)
(24.383 0.158746 4.28627)
(24.5249 0.272508 4.28557)
(24.7532 0.396995 4.28464)
(25.0738 0.530993 4.28378)
(25.4947 0.660292 4.28324)
(26.0201 0.75847 4.28273)
(26.6 0.794054 4.28186)
(27.2348 0.706256 4.2801)
(27.6702 0.504329 4.27974)
(28.0383 0.233658 4.27927)
(28.0276 -0.0510611 4.2799)
(27.8929 -0.246216 4.28069)
(27.6347 -0.367771 4.28233)
(27.3247 -0.430745 4.28464)
(26.9799 -0.458776 4.28571)
(26.668 -0.466282 4.28476)
(26.2899 -0.453233 4.28379)
(26.0687 -0.442092 4.28328)
(25.5933 -0.427991 4.28243)
(24.4344 0.0377557 4.30707)
(24.5009 0.114175 4.3069)
(24.646 0.195613 4.30645)
(24.8772 0.284081 4.30586)
(25.1985 0.377793 4.30522)
(25.6134 0.467493 4.30517)
(26.1202 0.534549 4.30484)
(26.6741 0.553703 4.30412)
(27.2474 0.497115 4.30285)
(27.6933 0.348779 4.30235)
(27.9769 0.150266 4.30219)
(28.0238 -0.0239035 4.30262)
(27.9162 -0.164898 4.3033)
(27.6821 -0.254021 4.30463)
(27.3881 -0.301237 4.30602)
(27.0556 -0.323693 4.30687)
(26.7497 -0.331331 4.30621)
(26.376 -0.323981 4.30554)
(26.1541 -0.316755 4.30523)
(25.6761 -0.307092 4.30449)
(24.5444 0.0227409 4.32646)
(24.6118 0.068774 4.32637)
(24.7588 0.117688 4.32613)
(24.9917 0.170597 4.32578)
(25.3133 0.226071 4.32559)
(25.7237 0.278912 4.32551)
(26.2187 0.317096 4.32536)
(26.7526 0.329106 4.32495)
(27.2998 0.292637 4.32425)
(27.7276 0.210925 4.32395)
(28.0088 0.0849419 4.32405)
(28.0519 -0.0103005 4.32445)
(27.9593 -0.0945466 4.32504)
(27.741 -0.148799 4.32606)
(27.4583 -0.177853 4.3272)
(27.1345 -0.192265 4.32777)
(26.8331 -0.19741 4.32721)
(26.463 -0.193468 4.32652)
(26.241 -0.189318 4.32621)
(25.7621 -0.183852 4.32544)
(24.6484 0.00757982 4.34478)
(24.7162 0.0229345 4.34471)
(24.8639 0.039228 4.34457)
(25.0975 0.0567998 4.34443)
(25.4191 0.0750583 4.34433)
(25.8269 0.0921798 4.34427)
(26.3173 0.104027 4.34421)
(26.8364 0.108121 4.34411)
(27.3898 0.0950326 4.34398)
(27.7778 0.067836 4.34405)
(28.0935 0.0373942 4.34429)
(28.1023 -0.00653719 4.3448)
(28.0265 -0.0338133 4.34538)
(27.818 -0.0514427 4.34599)
(27.5402 -0.0606756 4.34636)
(27.2192 -0.0655938 4.34581)
(26.9198 -0.0674068 4.34505)
(26.5506 -0.0660975 4.34419)
(26.3277 -0.0647085 4.34353)
(25.8471 -0.0627831 4.34268)
(20.3573 0.25759 3.58058)
(20.8946 0.392625 3.57879)
(20.5583 0.106662 3.57424)
(20.4109 0.614675 3.57149)
(19.8359 0.778302 3.53047)
(18.7142 1.13245 3.4735)
(21.1566 0.168623 3.72522)
(21.3221 0.323388 3.72294)
(21.1281 0.423154 3.71946)
(20.89 0.794083 3.7117)
(20.4732 1.15923 3.69815)
(19.699 1.87992 3.68382)
(18.3435 3.52173 3.6209)
(14.775 6.56047 3.47937)
(-3.62621 0.411141 2.0066)
(-0.0685077 -0.521 0.406755)
(2.50266 -0.484751 0.677543)
(5.54725 -0.597635 1.0572)
(5.99711 -0.0256392 0.839197)
(8.48929 -0.244294 1.76573)
(21.7809 0.190592 3.83668)
(21.7822 0.352404 3.8352)
(21.6654 0.647335 3.83038)
(21.4552 1.02404 3.82329)
(21.1134 1.59938 3.81813)
(20.6456 2.65327 3.79457)
(20.05 4.86133 3.79166)
(19.7424 8.1024 3.73971)
(8.14032 -3.05237 6.12375)
(17.371 -2.9468 5.16122)
(19.2307 -2.78055 4.77242)
(19.6733 -2.32546 4.42009)
(21.189 -1.8168 4.02945)
(20.3204 -1.43046 3.8218)
(20.9328 -1.03495 3.79623)
(22.164 0.164466 3.90602)
(22.1667 0.389866 3.90536)
(22.09 0.686441 3.90178)
(21.9484 1.10157 3.89553)
(21.7656 1.72206 3.89473)
(21.5695 2.7892 3.87017)
(21.7393 4.71254 3.86787)
(22.0253 7.22589 3.80781)
(26.7126 10.9136 3.60696)
(28.8821 3.96324 3.43453)
(23.0614 -2.9374 3.77954)
(25.7618 -3.18444 4.2783)
(25.2796 -2.83581 4.45662)
(24.7782 -2.40332 4.35036)
(24.3703 -2.07549 4.23733)
(24.0707 -1.62108 4.15791)
(23.9955 -1.47026 4.12511)
(23.8525 -1.21125 4.0435)
(22.4863 0.156409 3.96355)
(22.4934 0.41076 3.96308)
(22.4566 0.719869 3.96026)
(22.3909 1.15016 3.95493)
(22.3398 1.77927 3.95438)
(22.4056 2.74721 3.93297)
(22.848 4.37965 3.92901)
(24.7686 6.07911 3.87881)
(27.519 6.70698 3.80008)
(30.2077 3.67657 3.77507)
(31.5444 0.937349 3.71538)
(29.7078 -2.34821 3.74683)
(27.642 -2.6135 3.96305)
(26.668 -2.56592 4.1951)
(26.0423 -2.43407 4.30463)
(25.4415 -2.19175 4.24009)
(25.0305 -1.94108 4.15973)
(24.7009 -1.59365 4.06959)
(24.6104 -1.47393 4.03373)
(24.4055 -1.28504 3.98879)
(22.7643 0.148199 4.01292)
(22.7783 0.416481 4.01262)
(22.778 0.731661 4.01029)
(22.7788 1.1574 4.00584)
(22.8398 1.75539 4.00459)
(23.0575 2.61882 3.98747)
(23.7014 3.81127 3.98263)
(25.3999 5.27653 3.94495)
(28.16 4.49104 3.89608)
(29.9154 3.01008 3.87211)
(30.3143 0.199522 3.86021)
(29.4356 -1.19424 3.91024)
(28.0114 -1.89962 4.03455)
(27.1194 -2.13062 4.16495)
(26.5092 -2.13917 4.21541)
(25.9026 -1.98549 4.16645)
(25.4827 -1.80147 4.11021)
(25.1028 -1.52994 4.05726)
(24.9765 -1.42632 4.04122)
(24.695 -1.29012 4.02098)
(23.009 0.140736 4.05621)
(23.031 0.412488 4.05605)
(23.0622 0.724475 4.05402)
(23.1208 1.13161 4.05043)
(23.2628 1.68098 4.04768)
(23.5902 2.42193 4.03605)
(24.2788 3.33059 4.02566)
(25.7888 4.2845 4.00292)
(27.88 3.74699 3.96909)
(29.3762 2.35849 3.94424)
(29.8312 0.409207 3.95979)
(29.1018 -1.20591 3.99433)
(28.1467 -1.76899 4.04406)
(27.3166 -1.90353 4.11519)
(26.7561 -1.90085 4.15094)
(26.1849 -1.78453 4.13429)
(25.7778 -1.64436 4.10564)
(25.3775 -1.43501 4.07449)
(25.2247 -1.34624 4.06369)
(24.8819 -1.24434 4.04821)
(23.2273 0.133022 4.09474)
(23.2572 0.399222 4.09462)
(23.3151 0.699984 4.09285)
(23.4207 1.08032 4.08994)
(23.6227 1.5723 4.08617)
(24.0142 2.19651 4.07573)
(24.7134 2.89298 4.06752)
(26.0077 3.51681 4.05024)
(27.6718 3.16456 4.02836)
(28.9572 2.02214 4.00865)
(29.4023 0.490229 4.0153)
(28.9501 -0.765388 4.04543)
(28.1793 -1.30587 4.07606)
(27.4409 -1.52696 4.12547)
(26.911 -1.60885 4.15735)
(26.3715 -1.57523 4.1464)
(25.9756 -1.48761 4.12652)
(25.5644 -1.33078 4.10377)
(25.391 -1.25495 4.09519)
(25.0105 -1.17137 4.08417)
(23.4243 0.125254 4.12946)
(23.4619 0.378232 4.1292)
(23.5421 0.661386 4.12765)
(23.6844 1.00924 4.12505)
(23.9298 1.44282 4.12144)
(24.3545 1.96228 4.11536)
(25.0453 2.49594 4.10574)
(26.1584 2.91905 4.09356)
(27.5174 2.6487 4.07943)
(28.6046 1.71992 4.06679)
(29.0192 0.523706 4.0694)
(28.7367 -0.543153 4.08722)
(28.1297 -1.10002 4.10734)
(27.4957 -1.33987 4.13737)
(27.0086 -1.43027 4.15688)
(26.5087 -1.41386 4.15531)
(26.1271 -1.34606 4.14511)
(25.7149 -1.22248 4.13254)
(25.5253 -1.16041 4.12782)
(25.1156 -1.09578 4.12034)
(23.604 0.115834 4.16104)
(23.6486 0.351049 4.1606)
(23.7468 0.611995 4.15908)
(23.9166 0.924266 4.15693)
(24.1928 1.29973 4.15427)
(24.6331 1.72954 4.14905)
(25.2985 2.14165 4.14212)
(26.2685 2.42371 4.13358)
(27.3982 2.2039 4.12311)
(28.3231 1.45314 4.11483)
(28.7093 0.501164 4.11416)
(28.5417 -0.382768 4.12715)
(28.0783 -0.878679 4.14071)
(27.5363 -1.10951 4.16291)
(27.0852 -1.20717 4.17667)
(26.6183 -1.21795 4.17641)
(26.251 -1.17872 4.16915)
(25.8414 -1.09047 4.15995)
(25.6412 -1.04177 4.15599)
(25.2112 -0.990044 4.15015)
(23.7688 0.105148 4.19001)
(23.8195 0.319027 4.18959)
(23.9319 0.554208 4.18832)
(24.1224 0.828968 4.1866)
(24.4189 1.14935 4.18435)
(24.8642 1.49963 4.18082)
(25.4979 1.81637 4.17456)
(26.3549 2.00023 4.16747)
(27.3093 1.81819 4.16099)
(28.1033 1.21966 4.15519)
(28.4626 0.454997 4.15442)
(28.378 -0.253299 4.1638)
(28.0179 -0.699881 4.17052)
(27.5571 -0.925639 4.1856)
(27.1404 -1.03117 4.19558)
(26.705 -1.05891 4.19666)
(26.3521 -1.03837 4.19259)
(25.9483 -0.974848 4.18751)
(25.7396 -0.936713 4.18552)
(25.2939 -0.894925 4.18199)
(23.9211 0.0932706 4.21676)
(23.9768 0.282913 4.2164)
(24.1002 0.489672 4.21536)
(24.3057 0.726451 4.21392)
(24.6148 0.994863 4.21214)
(25.058 1.27811 4.20862)
(25.6587 1.52194 4.20446)
(26.4245 1.64341 4.19971)
(27.2447 1.49288 4.19489)
(27.9373 1.01496 4.19093)
(28.2696 0.406723 4.19092)
(28.24 -0.168898 4.19386)
(27.9646 -0.555532 4.19776)
(27.5732 -0.7657 4.2083)
(27.1877 -0.865248 4.21866)
(26.7813 -0.897964 4.21958)
(26.4413 -0.888544 4.21668)
(26.0438 -0.84234 4.21331)
(25.8299 -0.811723 4.21192)
(25.3716 -0.777789 4.20944)
(24.0624 0.0803974 4.24162)
(24.1221 0.243683 4.24132)
(24.2538 0.420335 4.24047)
(24.4699 0.619157 4.23933)
(24.786 0.839333 4.23777)
(25.223 1.06407 4.23521)
(25.7932 1.24858 4.23215)
(26.486 1.32922 4.22864)
(27.2052 1.20255 4.22508)
(27.8196 0.825816 4.22226)
(28.1262 0.350517 4.22225)
(28.1324 -0.114302 4.22366)
(27.9234 -0.431305 4.22627)
(27.5869 -0.617401 4.23509)
(27.2306 -0.707265 4.24122)
(26.8465 -0.74308 4.2421)
(26.5181 -0.743742 4.24012)
(26.1273 -0.713824 4.23827)
(25.9098 -0.691735 4.23772)
(25.4439 -0.666266 4.23638)
(24.1944 0.0667295 4.26483)
(24.2571 0.202089 4.2646)
(24.3949 0.347533 4.26393)
(24.6183 0.508865 4.26304)
(24.9373 0.684615 4.26196)
(25.3664 0.859231 4.25983)
(25.9105 0.996144 4.25741)
(26.5448 1.05036 4.25496)
(27.1913 0.946769 4.25247)
(27.745 0.655203 4.25059)
(28.0304 0.282794 4.25073)
(28.0597 -0.0756691 4.25205)
(27.896 -0.330394 4.25338)
(27.6074 -0.485703 4.25825)
(27.2746 -0.5666 4.26175)
(26.912 -0.600526 4.26361)
(26.5931 -0.605199 4.26294)
(26.2087 -0.584364 4.26206)
(25.9892 -0.567128 4.26173)
(25.5174 -0.546661 4.26057)
(24.3181 0.0524575 4.2866)
(24.3829 0.158752 4.28643)
(24.5251 0.272321 4.28592)
(24.7533 0.396832 4.28532)
(25.0738 0.530093 4.28417)
(25.4945 0.659597 4.28284)
(26.0198 0.758022 4.28102)
(26.5999 0.794591 4.27932)
(27.2349 0.706891 4.27769)
(27.6704 0.505011 4.27675)
(28.0383 0.23395 4.27668)
(28.0289 -0.0503389 4.27756)
(27.8936 -0.246183 4.279)
(27.6353 -0.369329 4.28038)
(27.3252 -0.43153 4.28298)
(26.9792 -0.460404 4.28517)
(26.6683 -0.466818 4.28513)
(26.2899 -0.453777 4.28489)
(26.0691 -0.441819 4.28483)
(25.5938 -0.427328 4.28404)
(24.4344 0.0377445 4.3071)
(24.5009 0.114178 4.30698)
(24.646 0.195478 4.30664)
(24.8773 0.283937 4.30619)
(25.1985 0.377318 4.30544)
(25.6132 0.466894 4.30455)
(26.12 0.534163 4.30336)
(26.674 0.553983 4.3023)
(27.2475 0.497485 4.30129)
(27.6933 0.349203 4.30068)
(27.9774 0.150435 4.3008)
(28.0243 -0.0231772 4.30144)
(27.9165 -0.165114 4.30248)
(27.6821 -0.255084 4.30355)
(27.3883 -0.302337 4.30526)
(27.055 -0.325286 4.30668)
(26.7499 -0.331713 4.30649)
(26.376 -0.324119 4.30622)
(26.1545 -0.316248 4.30618)
(25.6768 -0.306427 4.30559)
(24.5444 0.0227346 4.32647)
(24.6118 0.0687745 4.3264)
(24.7588 0.117609 4.32621)
(24.9918 0.170493 4.32592)
(25.3132 0.225862 4.32554)
(25.7236 0.278811 4.32501)
(26.2186 0.317157 4.32434)
(26.7526 0.329569 4.32375)
(27.2998 0.293094 4.32328)
(27.7278 0.211237 4.323)
(28.0089 0.085176 4.32331)
(28.0522 -0.0100513 4.32382)
(27.9596 -0.0947264 4.32465)
(27.7411 -0.149645 4.32555)
(27.4587 -0.178198 4.32687)
(27.1342 -0.19323 4.32794)
(26.8333 -0.197732 4.32775)
(26.4629 -0.193691 4.32739)
(26.2411 -0.189125 4.32721)
(25.7623 -0.183468 4.32643)
(24.6485 0.00757816 4.34479)
(24.7162 0.0229338 4.34471)
(24.8639 0.0392017 4.34459)
(25.0975 0.0567723 4.34444)
(25.419 0.0748944 4.34426)
(25.8268 0.0918964 4.34403)
(26.3173 0.103641 4.34381)
(26.8365 0.107843 4.34366)
(27.3899 0.0948587 4.34362)
(27.7779 0.0677591 4.34371)
(28.0936 0.0373733 4.34403)
(28.1026 -0.00643704 4.34466)
(28.0267 -0.0337428 4.34538)
(27.818 -0.0515927 4.34595)
(27.5403 -0.0603892 4.34637)
(27.2187 -0.0657186 4.34619)
(26.9196 -0.0673086 4.34549)
(26.5502 -0.0659771 4.3448)
(26.3273 -0.064482 4.34416)
(25.8468 -0.0625945 4.34336)
(20.3573 0.257656 3.58055)
(20.8942 0.392648 3.57904)
(20.5554 0.106904 3.5747)
(20.4106 0.615894 3.56888)
(19.8502 0.772831 3.53084)
(18.7458 1.14283 3.48603)
(21.1568 0.169113 3.7254)
(21.323 0.321758 3.7231)
(21.127 0.421862 3.71966)
(20.8884 0.794648 3.71057)
(20.4682 1.15975 3.69706)
(19.6891 1.88304 3.67858)
(18.3586 3.5374 3.62124)
(14.8433 6.52255 3.45013)
(-3.87261 0.117287 1.29298)
(1.31916 -0.737196 0.939575)
(5.795 -1.14127 1.55771)
(10.2992 -1.58656 2.02263)
(9.51227 -0.667198 1.28763)
(11.2757 -0.927137 2.35779)
(21.781 0.189875 3.83642)
(21.7822 0.351944 3.8345)
(21.6659 0.647483 3.82919)
(21.4559 1.02432 3.82117)
(21.1115 1.59955 3.81244)
(20.6479 2.6577 3.78912)
(20.0564 4.86083 3.76052)
(19.7588 8.08425 3.68084)
(5.14589 -2.0376 5.02289)
(17.7254 -3.51329 5.50639)
(20.0652 -3.1015 4.66361)
(21.2091 -2.65236 4.40418)
(22.5257 -2.04068 4.14767)
(21.6753 -1.71451 4.04932)
(21.9052 -1.29515 4.04879)
(22.1639 0.164477 3.90568)
(22.1666 0.389909 3.90416)
(22.0903 0.686721 3.89996)
(21.9494 1.10167 3.89261)
(21.7636 1.72179 3.88772)
(21.5715 2.78947 3.86355)
(21.7387 4.70753 3.84319)
(22.0162 7.2141 3.78936)
(26.693 10.9703 3.64196)
(29.0249 3.95004 3.52257)
(23.511 -2.96415 3.34907)
(26.0179 -3.3375 4.03421)
(25.3799 -3.11597 4.32749)
(24.7852 -2.60063 4.24751)
(24.4331 -2.22015 4.16264)
(24.1739 -1.73796 4.11327)
(24.0999 -1.56377 4.10529)
(23.9505 -1.31506 4.11495)
(22.4861 0.156344 3.96327)
(22.4934 0.410692 3.96183)
(22.4567 0.720006 3.95833)
(22.3918 1.15024 3.95194)
(22.338 1.77907 3.94787)
(22.4071 2.74693 3.92775)
(22.8488 4.37764 3.91007)
(24.7633 6.08075 3.87354)
(27.5116 6.69856 3.81095)
(30.2011 3.68923 3.7529)
(31.5426 0.946603 3.69826)
(29.8158 -2.28911 3.70656)
(27.6947 -2.57559 3.82075)
(26.7496 -2.69059 4.04402)
(26.0785 -2.61041 4.2131)
(25.4283 -2.30714 4.19184)
(25.0452 -2.02495 4.14245)
(24.7137 -1.66532 4.08184)
(24.6228 -1.54311 4.05747)
(24.4137 -1.35453 4.03515)
(22.7642 0.148175 4.01269)
(22.7783 0.416434 4.01148)
(22.7781 0.731729 4.00849)
(22.7795 1.15747 4.00303)
(22.8387 1.75546 3.99916)
(23.058 2.61877 3.98271)
(23.7023 3.80998 3.971)
(25.3977 5.27752 3.93875)
(28.1561 4.48522 3.90584)
(29.9114 3.00932 3.88196)
(30.3222 0.223144 3.87339)
(29.3794 -1.25856 3.88886)
(28.0368 -1.912 3.94903)
(27.1571 -2.20131 4.07325)
(26.5419 -2.23536 4.1681)
(25.9118 -2.05405 4.14959)
(25.5026 -1.8478 4.10778)
(25.1166 -1.56586 4.06571)
(24.985 -1.45627 4.05269)
(24.6964 -1.31719 4.04327)
(23.0089 0.140743 4.05602)
(23.031 0.412465 4.05502)