/*--------------------------------*- C++ -*----------------------------------*\
  =========                 |
  \\      /  F ield         | OpenFOAM: The Open Source CFD Toolbox
   \\    /   O peration     | Website:  https://openfoam.org
    \\  /    A nd           | Version:  10
     \\/     M anipulation  |
\*---------------------------------------------------------------------------*/
FoamFile
{
    format      ascii;
    class       volScalarField;
    location    "2000";
    object      k;
}
// * * * * * * * * * * * * * * * * * * * * * * * * * * * * * * * * * * * * * //

dimensions      [0 2 -2 0 0 0 0];

internalField   nonuniform List<scalar> 
8636
(
2.0324
2.04897
2.00823
1.99164
1.95487
1.91743
1.92204
1.87579
1.8485
1.8496
1.80464
1.77847
1.77466
1.73276
1.70644
2.28477
2.07811
2.03236
2.04895
2.00823
2.05961
2.07127
2.0096
1.99163
1.95487
1.91742
2.00702
1.99414
1.95662
1.92205
1.87579
1.8485
1.92432
1.91817
1.88569
1.84961
1.80465
1.77848
1.84386
1.83825
1.81079
1.77467
1.73277
1.70645
2.24378
2.2848
2.07816
2.03233
2.04894
2.00822
2.0584
2.07121
2.00961
1.99162
1.95487
1.91742
2.00665
1.9941
1.95662
1.92205
1.87579
1.8485
1.92406
1.91816
1.88569
1.84961
1.80465
1.77848
1.84378
1.83826
1.81079
1.77467
1.73278
1.70645
2.24319
2.28479
2.07819
2.03232
2.04893
2.00822
2.0575
2.07115
2.00963
1.99162
1.95487
1.91741
2.00638
1.99406
1.95662
1.92205
1.87579
1.8485
1.9238
1.91814
1.88569
1.84961
1.80465
1.77848
1.84369
1.83826
1.81079
1.77467
1.73278
1.70645
2.24258
2.28476
2.07822
2.03231
2.04894
2.00822
2.05696
2.07107
2.00964
1.99161
1.95488
1.9174
2.00625
1.99402
1.95662
1.92205
1.87578
1.8485
1.92359
1.91811
1.88569
1.84961
1.80464
1.77848
1.84357
1.83826
1.81079
1.77467
1.73277
1.70644
2.24204
2.28472
2.07823
2.03231
2.04895
2.00822
2.05677
2.071
2.00966
1.99161
1.95488
1.9174
2.00627
1.99397
1.95662
1.92204
1.87578
1.84849
1.92342
1.91807
1.88568
1.8496
1.80464
1.77847
1.84346
1.83824
1.81078
1.77466
1.73276
1.70643
2.24161
2.28467
2.07824
2.03231
2.04896
2.00823
2.05692
2.07093
2.00967
1.9916
1.95489
1.91739
2.00644
1.99394
1.95661
1.92203
1.87577
1.84848
1.92334
1.91803
1.88566
1.84959
1.80462
1.77845
1.84334
1.83821
1.81076
1.77463
1.73274
1.70641
2.24133
2.28461
2.07824
2.03232
2.04897
2.00823
2.05738
2.07086
2.00969
1.99159
1.9549
1.91738
2.00677
1.9939
1.9566
1.92201
1.87575
1.84846
1.92331
1.91797
1.88563
1.84956
1.80459
1.77843
1.84323
1.83816
1.81072
1.7746
1.7327
1.70638
2.2412
2.28455
2.07823
2.03233
2.04899
2.00823
2.05812
2.07081
2.0097
1.99158
1.9549
1.91736
2.00724
1.99386
1.95656
1.92198
1.87572
1.84842
1.92341
1.91791
1.88557
1.8495
1.80454
1.77838
1.84316
1.83809
1.81066
1.77453
1.73265
1.70632
2.24124
2.28451
2.07823
2.03235
2.049
2.00823
2.45831
2.05912
2.07077
2.0097
1.99153
1.9549
1.91732
2.00782
1.9938
1.9565
1.92191
1.87565
1.84837
1.92347
1.91781
1.88549
1.84942
1.80446
1.77831
1.84299
1.83797
1.81056
1.77445
1.73256
1.70624
2.24143
2.28447
2.07822
2.03238
2.049
2.00823
2.46447
2.06042
2.07077
2.00971
1.99144
1.95487
1.91726
2.0085
1.9937
1.95638
1.92181
1.87556
1.84829
1.92379
1.91771
1.88537
1.84931
1.80436
1.77822
1.84305
1.83786
1.81044
1.77433
1.73246
1.70615
2.24176
2.28444
2.0782
2.03248
2.04902
2.00823
2.4694
2.06179
2.07076
2.0097
1.99128
1.9548
1.91718
2.00909
1.99354
1.95619
1.92166
1.87543
1.84819
1.92341
1.91756
1.88524
1.84919
1.80425
1.77813
1.84246
1.83774
1.81034
1.77423
1.73237
1.70607
2.24221
2.28441
2.07826
2.03292
2.04913
2.00826
2.45676
2.06408
2.07078
2.00968
1.99117
1.95471
1.91713
1.99343
1.95605
1.92148
1.87532
1.84811
1.91742
1.88511
1.84907
1.80417
1.77807
1.83762
1.81026
1.77416
1.73231
1.70602
2.04922
2.02198
2.07409
2.11327
2.04868
1.99128
2.07973
1.99119
2.01954
2.04896
2.01302
1.9953
1.95897
2.19561
2.3172
2.17358
2.07409
2.17354
2.07406
2.11326
2.04867
2.11323
2.04867
2.07975
1.99127
2.07973
1.99118
2.07809
2.1313
2.04501
2.04871
2.01953
2.02383
1.98736
2.03238
2.01951
2.02384
1.98737
2.01301
1.9953
1.95896
2.04894
2.01299
1.99529
1.95895
2.33959
2.3396
2.19563
2.31717
2.19567
2.31714
2.17351
2.07407
2.17349
2.07405
2.11323
2.04866
2.11322
2.04865
2.07975
1.99127
2.07973
1.99118
2.00895
2.23481
2.1128
2.2439
2.23477
2.08272
2.1127
2.07747
2.12903
2.07506
2.28475
2.07748
2.12902
2.07505
2.1312
2.045
2.0487
2.07814
2.13125
2.04501
2.04872
2.0195
2.02384
1.98737
2.03234
2.01949
2.02385
1.98738
2.01297
1.99529
1.95894
2.04892
2.01296
1.99529
1.95894
2.33961
2.33962
2.19568
2.31712
2.19571
2.31709
2.17346
2.07406
2.17346
2.07406
2.11322
2.04864
2.11321
2.04863
2.07975
1.99127
2.07973
1.99118
2.00828
2.0076
2.23484
2.08227
2.11259
2.24332
2.23477
2.08185
2.11248
2.07749
2.12899
2.07503
2.28475
2.07749
2.12898
2.07502
2.13115
2.04501
2.04871
2.07818
2.13122
2.04502
2.04873
2.0195
2.02385
1.98738
2.03232
2.01949
2.02385
1.98739
2.01295
1.99529
1.95893
2.04892
2.01293
1.99529
1.95893
2.33962
2.33962
2.19572
2.31708
2.19573
2.31707
2.17343
2.07406
2.17344
2.07406
2.11322
2.04863
2.11322
2.04862
2.07975
1.99127
2.07973
1.99118
2.00713
2.00707
2.23483
2.08143
2.11235
2.24272
2.23472
2.08107
2.11223
2.07749
2.12895
2.07501
2.28473
2.07749
2.12893
2.07501
2.13113
2.04502
2.04872
2.0782
2.13121
2.04504
2.04874
2.0195
2.02386
1.9874
2.03231
2.01949
2.02386
1.9874
2.01292
1.9953
1.95892
2.04892
2.01291
1.9953
1.95893
2.33962
2.33962
2.19573
2.31706
2.19573
2.31705
2.17342
2.07407
2.17343
2.07407
2.11322
2.04861
2.11323
2.0486
2.07975
1.99127
2.07973
1.99118
2.00678
2.00731
2.23477
2.08073
2.1121
2.24215
2.23464
2.08045
2.11199
2.07749
2.12889
2.07499
2.28469
2.07748
2.12887
2.07499
2.13112
2.04504
2.04874
2.07822
2.1312
2.04506
2.04876
2.0195
2.02387
1.98741
2.03231
2.0195
2.02387
1.98741
2.01291
1.99531
1.95892
2.04893
2.0129
1.99531
1.95893
2.33961
2.33961
2.19574
2.31704
2.19573
2.31705
2.17341
2.07408
2.17343
2.07408
2.11323
2.0486
2.11323
2.04859
2.07975
1.99127
2.07973
1.99119
2.00717
2.00823
2.23468
2.0802
2.11186
2.24169
2.23454
2.08002
2.11176
2.07749
2.12884
2.07498
2.28464
2.07748
2.12881
2.07498
2.13111
2.04506
2.04875
2.07823
2.13121
2.04508
2.04877
2.01951
2.02387
1.98742
2.03231
2.01951
2.02388
1.98742
2.0129
1.99532
1.95892
2.04894
2.01289
1.99532
1.95893
2.01819
2.33961
2.3396
2.19573
2.31704
2.19572
2.31704
2.17341
2.07409
2.17344
2.07409
2.11324
2.04859
2.11324
2.04858
2.07975
1.99128
2.07972
1.99119
2.00822
2.00973
2.23458
2.07988
2.11165
2.24137
2.23444
2.07981
2.11156
2.07748
2.12878
2.07497
2.28458
2.07747
2.12875
2.07497
2.13112
2.04508
2.04877
2.07823
2.13122
2.0451
2.04879
2.01952
2.02388
1.98743
2.03231
2.01952
2.02389
1.98744
2.01289
1.99533
1.95892
2.04896
2.01289
1.99533
1.95893
2.02002
2.022
2.3396
2.33959
2.19572
2.31704
2.19571
2.31705
2.17342
2.0741
2.17344
2.0741
2.11324
2.04858
2.11324
2.04857
2.07974
1.99128
2.07972
1.9912
2.00982
2.01169
2.23448
2.07978
2.11147
2.24121
2.23434
2.07982
2.11141
2.07747
2.12872
2.07496
2.28453
2.07746
2.1287
2.07496
2.13113
2.0451
2.04879
2.07823
2.13123
2.04511
2.04881
2.01953
2.02389
1.98744
2.03232
2.01953
2.0239
1.98744
2.01289
1.99534
1.95893
2.04897
2.01288
1.99534
1.95894
2.02405
2.02623
2.33959
2.33959
2.1957
2.31704
2.19569
2.31705
2.17343
2.0741
2.17345
2.0741
2.11325
2.04857
2.11324
2.04856
2.07974
1.99128
2.07971
1.9912
2.01186
2.014
2.23438
2.07989
2.11135
2.24121
2.23426
2.08005
2.11133
2.07746
2.12866
2.07495
2.28448
2.07745
2.12865
2.07495
2.13114
2.04512
2.04881
2.07822
2.13124
2.04513
2.04883
2.01954
2.0239
1.98745
2.03234
2.01955
2.02391
1.98745
2.01289
1.99536
1.95893
2.04898
2.01288
1.99536
1.95894
2.02843
2.4566
2.0307
2.33958
2.33958
2.19569
2.31704
2.19567
2.31705
2.17344
2.0741
2.17346
2.0741
2.11324
2.04856
2.11324
2.04855
2.07973
1.99128
2.0797
1.9912
2.0142
2.01662
2.23431
2.08021
2.1113
2.24135
2.23421
2.0805
2.11132
2.07745
2.12863
2.07494
2.28444
2.07744
2.12862
2.07495
2.13116
2.04513
2.04883
2.07821
2.13126
2.04515
2.04886
2.01956
2.0239
1.98745
2.03236
2.01957
2.0239
1.98745
2.01289
1.99537
1.95893
2.04899
2.01289
1.99537
1.95894
2.03298
2.46294
2.03544
2.33958
2.33959
2.19567
2.31705
2.19566
2.31706
2.17344
2.07411
2.17346
2.07411
2.11324
2.04855
2.11322
2.04854
2.07972
1.99128
2.07968
1.9912
2.0169
2.01928
2.23426
2.0808
2.11135
2.24166
2.2342
2.08115
2.11143
2.07745
2.12861
2.07494
2.28441
2.07743
2.12861
2.07495
2.13117
2.04515
2.04885
2.0782
2.13127
2.04516
2.04886
2.01959
2.02389
1.98746
2.03241
2.01962
2.02388
1.98745
2.0129
1.99537
1.95893
2.049
2.01289
1.99536
1.95894
2.03777
2.46842
2.03981
2.33958
2.33959
2.19565
2.31704
2.19566
2.31703
2.17344
2.07412
2.17343
2.07411
2.11322
2.04853
2.11317
2.0485
2.07969
1.99129
2.07962
1.99121
2.0194
2.02197
2.23427
2.08142
2.11151
2.24201
2.23422
2.08191
2.11165
2.07743
2.12859
2.07494
2.28437
2.07743
2.1286
2.07495
2.13118
2.04516
2.04883
2.07823
2.13122
2.04516
2.04882
2.01967
2.02391
1.9875
2.03264
2.01977
2.0239
1.98754
2.0129
1.99536
1.95892
2.04906
2.01291
1.99533
1.95892
2.04238
2.4833
2.04544
2.33958
2.34
2.19567
2.31696
2.19609
2.31709
2.17341
2.07412
2.17362
2.07419
2.11313
2.0485
2.11312
2.04854
2.07964
1.99129
2.07961
1.99121
2.23433
2.08263
2.11187
2.24293
2.23448
2.08338
2.11218
2.0774
2.12862
2.07492
2.28458
2.07752
2.12874
2.07499
2.13107
2.04511
2.04875
2.07861
2.13118
2.04509
2.04879
2.01993
2.02406
1.98773
2.03325
2.02016
2.02408
1.98779
2.01294
1.9953
1.9589
2.04949
2.01302
1.99531
1.95889
2.0992
2.2994
2.05862
1.95108
2.00476
1.96036
1.99846
2.61726
2.61597
2.61999
2.61803
2.59287
2.61607
2.2991
2.47079
2.33267
2.18781
2.33783
2.18764
2.32257
2.3469
2.01787
2.02301
2.01547
2.27203
2.09654
2.27237
2.09735
2.33314
2.18796
2.26968
2.09788
2.29283
2.29284
1.99583
2.00824
1.9958
1.94768
1.94881
2.29283
2.29283
1.99581
1.94768
1.94879
2.00823
1.99578
1.94769
1.94881
2.29283
2.29283
2.13657
2.30415
2.14502
2.28474
2.13653
2.30415
2.14498
1.9958
1.94769
1.94879
2.00822
1.99577
1.94769
1.94881
2.29283
2.29284
2.03306
2.14111
2.00664
2.24362
2.03358
2.14087
2.00638
2.13656
2.30416
2.14503
2.28476
2.13652
2.30416
2.14498
1.99579
1.94769
1.94879
2.00822
1.99576
1.9477
1.94881
2.29284
2.29284
2.03259
2.14085
2.00576
2.24302
2.03313
2.14059
2.00551
2.13655
2.30415
2.14501
2.28474
2.1365
2.30415
2.14496
1.99578
1.94769
1.94879
2.00822
1.99576
1.9477
1.94881
2.29284
2.29284
2.03208
2.14053
2.00494
2.24242
2.03263
2.14026
2.00471
2.13652
2.30414
2.14498
2.28471
2.13648
2.30413
2.14492
1.99578
1.9477
1.94879
2.00822
1.99576
1.9477
1.94881
2.29284
2.29284
2.03161
2.14019
2.00425
2.24191
2.03214
2.13992
2.00407
2.13649
2.30411
2.14493
2.28467
2.13645
2.3041
2.14486
1.99578
1.9477
1.94879
2.00822
1.99576
1.94771
1.94881
2.29284
2.29284
2.03121
2.13987
2.00376
2.24151
2.03172
2.13961
2.00363
2.13645
2.30407
2.14486
2.28461
2.13642
2.30406
2.1448
1.99579
1.9477
1.94879
2.00822
1.99577
1.94771
1.94881
1.95817
1.9609
2.29284
2.29284
2.03091
2.1396
2.0035
2.24127
2.0314
2.13936
2.00343
2.13642
2.30403
2.14479
2.28456
2.13638
2.30402
2.14473
1.99579
1.9477
1.94878
2.00823
1.99577
1.94771
1.9488
1.96816
1.97063
2.29284
2.29284
2.03074
2.13941
2.00347
2.24118
2.03119
2.13919
2.00345
2.13638
2.304
2.14473
2.2845
2.13634
2.30398
2.14466
1.99579
1.9477
1.94878
2.00823
1.99578
1.9477
1.94879
2.453
1.97713
1.97937
2.29284
2.29284
2.0307
2.13931
2.00366
2.24126
2.03112
2.13912
2.0037
2.13635
2.30396
2.14466
2.28446
2.13631
2.30395
2.1446
1.9958
1.9477
1.94877
2.00823
1.99578
1.94769
1.94878
2.45988
1.98512
1.98712
2.29284
2.29284
2.03081
2.1393
2.00407
2.24148
2.03119
2.13914
2.00416
2.13631
2.30393
2.14461
2.28442
2.13627
2.30392
2.14455
1.99581
1.94768
1.94875
2.00823
1.9958
1.94767
1.94875
2.46583
1.99232
1.99415
2.29285
2.29285
2.03094
2.13939
2.0046
2.24183
2.03132
2.13925
2.0047
2.13625
2.3039
2.14454
2.28439
2.13622
2.30388
2.14447
1.99585
1.94766
1.94873
2.00823
1.99586
1.94764
1.94872
2.10011
2.46884
2.10223
1.96507
1.99845
1.96221
2.00003
2.29288
2.29287
2.00523
2.24245
2.0053
2.03143
2.13955
2.0317
2.13944
2.13626
2.30382
2.14449
2.2844
2.13621
2.30383
2.14446
1.99593
1.94766
1.94874
2.00832
1.99597
1.94766
1.94879
2.29284
2.24309
2.13808
2.29077
2.0741
2.14252
2.02155
2.14255
2.02167
2.29072
2.11328
2.32146
2.25819
2.32147
2.25821
2.37225
2.04868
2.19749
2.08498
2.19747
2.08499
2.37224
2.13809
2.24311
2.1381
2.2431
2.05054
1.99875
2.00703
1.99121
2.05058
2.00701
1.99868
2.29284
2.29283
2.13811
2.2431
2.13809
2.24312
2.03738
2.07975
2.25551
1.98587
2.2555
1.98596
2.03735
2.05058
1.99127
1.99868
2.00698
2.00702
2.05053
1.99876
2.19559
2.26829
2.26829
2.31721
2.28666
2.28667
2.27523
2.35703
2.06001
2.17358
2.27531
2.35702
2.05993
2.29071
2.14253
2.02168
2.07408
2.29076
2.14251
2.02157
2.2753
2.17354
2.35698
2.05993
2.357
2.06001
2.27522
2.29076
2.07407
2.1425
2.02156
2.14252
2.02168
2.2907
2.32145
2.25817
2.11325
2.32144
2.25815
2.37222
2.19747
2.08497
2.04868
2.37223
2.19749
2.08495
2.11324
2.32142
2.25812
2.32143
2.25814
2.37221
2.04867
2.19749
2.08493
2.19747
2.08494
2.3722
2.13809
2.24313
2.1381
2.24311
2.03736
2.25551
1.98596
2.07974
2.03738
2.25552
1.98588
2.05054
1.99876
2.00702
1.99121
2.05058
2.007
1.99869
2.29284
2.29283
2.13811
2.24312
2.13809
2.24314
2.03738
2.07975
2.25553
1.98587
2.25552
1.98595
2.03736
2.05058
1.99127
1.99869
2.00697
2.00701
2.05053
1.99877
2.33959
2.3396
2.26828
2.19564
2.26829
2.28664
2.31716
2.28663
2.19566
2.26829
2.26829
2.31714
2.28661
2.28662
2.27521
2.35697
2.06001
2.17351
2.27529
2.35696
2.05993
2.2907
2.14251
2.02169
2.07407
2.29075
2.1425
2.02158
2.27528
2.17348
2.35694
2.05993
2.35695
2.06001
2.2752
2.29074
2.07406
2.14249
2.02157
2.14251
2.02169
2.29069
2.32142
2.25811
2.11322
2.32141
2.25809
2.37218
2.19747
2.08492
2.04866
2.37219
2.19749
2.08491
2.11322
2.32141
2.25807
2.32141
2.25808
2.37218
2.04865
2.19749
2.08488
2.19747
2.08489
2.37216
2.13809
2.24314
2.13811
2.24312
2.03736
2.25553
1.98596
2.07974
2.03738
2.25553
1.98588
2.05054
1.99878
2.00701
1.9912
2.05058
2.00699
1.9987
2.29284
2.29284
2.13811
2.24313
2.13809
2.24315
2.03739
2.07975
2.25554
1.98587
2.25553
1.98595
2.03736
2.05058
1.99127
1.99871
2.00697
2.00701
2.05054
1.99878
2.32895
2.1876
2.18794
2.3287
2.00917
2.09014
2.09044
2.11681
2.2058
2.10057
2.23476
2.11706
2.20563
2.10046
2.03377
2.24405
2.14097
2.00681
2.14119
2.00706
2.03326
2.11703
2.23483
2.20564
2.10045
2.20583
2.10056
2.11677
2.15851
2.3324
2.02627
2.07747
2.15859
2.33239
2.02624
2.13652
2.28479
2.30416
2.14498
2.30416
2.14503
2.13656
2.15858
2.07748
2.33239
2.02624
2.3324
2.02626
2.1585
2.33961
2.33962
2.26829
2.19569
2.26829
2.2866
2.31711
2.28659
2.1957
2.2683
2.26829
2.3171
2.28658
2.28659
2.27519
2.35692
2.06001
2.17347
2.27527
2.35692
2.05993
2.29069
2.14251
2.0217
2.07406
2.29074
2.14249
2.02158
2.27526
2.17344
2.35691
2.05992
2.35691
2.06001
2.27518
2.29073
2.07406
2.14249
2.02158
2.14251
2.0217
2.29068
2.32141
2.25806
2.11321
2.3214
2.25805
2.37214
2.19747
2.08487
2.04865
2.37216
2.19748
2.08486
2.11322
2.3214
2.25804
2.32141
2.25805
2.37214
2.04863
2.19748
2.08484
2.19746
2.08485
2.37213
2.1381
2.24315
2.13811
2.24313
2.03737
2.25554
1.98596
2.07974
2.03739
2.25554
1.98588
2.05054
1.99879
2.00701
1.9912
2.05058
2.00699
1.99872
2.29284
2.29284
2.13811
2.24313
2.13809
2.24316
2.03739
2.07975
2.25554
1.98588
2.25554
1.98596
2.03737
2.05059
1.99127
1.99871
2.00697
2.00701
2.05054
1.99879
2.3283
2.18719
2.32845
2.18686
2.08954
2.00816
2.08929
2.32815
2.18619
2.18648
2.3281
2.0076
2.08858
2.08875
2.11671
2.20583
2.10055
2.23478
2.11699
2.20563
2.10044
2.03336
2.24349
2.14074
2.00594
2.14099
2.0062
2.03283
2.11691
2.23484
2.20559
2.1004
2.20581
2.10053
2.11663
2.15849
2.3324
2.02627
2.07749
2.15857
2.33239
2.02624
2.13651
2.2848
2.30416
2.14497
2.30416
2.14502
2.13655
2.15856
2.07749
2.33239
2.02623
2.3324
2.02626
2.15848
2.33962
2.33962
2.2683
2.19572
2.2683
2.28658
2.31708
2.28657
2.19573
2.26831
2.2683
2.31707
2.28657
2.28657
2.27517
2.3569
2.06001
2.17345
2.27525
2.3569
2.05992
2.29068
2.14251
2.0217
2.07406
2.29073
2.14249
2.02159
2.27524
2.17342
2.35689
2.05992
2.35689
2.06
2.27516
2.29072
2.07407
2.14249
2.02159
2.14251
2.0217
2.29068
2.32141
2.25803
2.11321
2.3214
2.25802
2.37211
2.19745
2.08484
2.04863
2.37212
2.19747
2.08483
2.11322
2.3214
2.25802
2.32141
2.25802
2.37211
2.04862
2.19746
2.08481
2.19745
2.08482
2.3721
2.1381
2.24316
2.13811
2.24314
2.03737
2.25554
1.98596
2.07974
2.0374
2.25554
1.98589
2.05054
1.9988
2.00701
1.9912
2.05058
2.00699
1.99872
2.29284
2.29284
2.13812
2.24314
2.1381
2.24316
2.0374
2.07975
2.25554
1.98588
2.25554
1.98596
2.03737
2.05059
1.99127
1.99872
2.00697
2.00701
2.05054
1.9988
2.32808
2.18584
2.32804
2.18558
2.08811
2.00723
2.08801
2.32811
2.18506
2.18527
2.00685
2.08758
2.08761
2.11654
2.20577
2.10049
2.23475
2.11683
2.20555
2.10037
2.03288
2.24288
2.14043
2.00509
2.14069
2.00533
2.03233
2.11672
2.2348
2.20548
2.10031
2.20571
2.10045
2.11642
2.15847
2.33239
2.02626
2.07749
2.15855
2.33237
2.02624
2.13649
2.28478
2.30414
2.14494
2.30415
2.145
2.13653
2.15854
2.07749
2.33237
2.02623
2.33238
2.02626
2.15846
2.33962
2.33962
2.26831
2.19573
2.26831
2.28657
2.31706
2.28656
2.19574
2.26831
2.26831
2.31705
2.28656
2.28656
2.27515
2.35689
2.06
2.17343
2.27523
2.35689
2.05992
2.29067
2.14251
2.02171
2.07407
2.29072
2.1425
2.02159
2.27523
2.17341
2.35689
2.05991
2.35689
2.06
2.27515
2.29072
2.07407
2.1425
2.02159
2.14252
2.02171
2.29067
2.32141
2.25802
2.11322
2.32141
2.25801
2.37209
2.19744
2.08481
2.04861
2.3721
2.19746
2.0848
2.11323
2.32141
2.25801
2.32141
2.25801
2.37209
2.0486
2.19745
2.08479
2.19744
2.0848
2.37208
2.1381
2.24316
2.13811
2.24314
2.03738
2.25554
1.98596
2.07974
2.0374
2.25554
1.98589
2.05055
1.9988
2.00701
1.9912
2.05059
2.007
1.99873
2.29284
2.29284
2.13812
2.24314
2.1381
2.24316
2.0374
2.07975
2.25554
1.98588
2.25554
1.98596
2.03738
2.05059
1.99127
1.99873
2.00698
2.00701
2.05055
1.99881
2.18479
2.18463
2.08726
2.00709
2.08731
2.18429
2.18441
2.00689
2.08718
2.08705
2.11631
2.20564
2.10039
2.23469
2.11661
2.2054
2.10026
2.03238
2.2423
2.14008
2.00436
2.14036
2.00457
2.03184
2.11648
2.23473
2.20532
2.10019
2.20555
2.10033
2.11618
2.15845
2.33237
2.02626
2.07749
2.15853
2.33235
2.02623
2.13647
2.28474
2.30411
2.14489
2.30412
2.14495
2.1365
2.15852
2.07749
2.33234
2.02623
2.33236
2.02626
2.15844
2.33961
2.33961
2.26831
2.19573
2.26831
2.28656
2.31705
2.28656
2.19573
2.26832
2.26831
2.31704
2.28657
2.28656
2.27514
2.35688
2.06
2.17343
2.27522
2.35689
2.05992
2.29067
2.14252
2.02171
2.07408
2.29072
2.14251
2.0216
2.27521
2.17341
2.35689
2.05991
2.35689
2.06
2.27513
2.29072
2.07408
2.14251
2.02159
2.14252
2.02171
2.29067
2.32141
2.25801
2.11323
2.32141
2.258
2.37207
2.19743
2.08479
2.0486
2.37208
2.19745
2.08479
2.11323
2.32141
2.258
2.32142
2.258
2.37208
2.04859
2.19744
2.08478
2.19742
2.08478
2.37207
2.1381
2.24316
2.13812
2.24314
2.03738
2.25553
1.98597
2.07973
2.0374
2.25553
1.98589
2.05055
1.99881
2.00702
1.99121
2.05059
2.007
1.99874
2.29284
2.29284
2.13812
2.24314
2.1381
2.24316
2.0374
2.07975
2.25553
1.98589
2.25553
1.98597
2.03738
2.0506
1.99127
1.99873
2.00698
2.00702
2.05055
1.99881
2.18412
2.18405
2.087
2.00768
2.08719
2.33005
2.1839
2.18392
2.33049
2.28584
2.28445
2.24768
2.00762
2.08734
1.99506
2.08707
1.99385
2.24855
2.11606
2.20546
2.10027
2.2346
2.11636
2.20523
2.10013
2.03192
2.24181
2.13975
2.00382
2.14002
2.00398
2.0314
2.11623
2.23463
2.20513
2.10006
2.20537
2.1002
2.11593
2.15843
2.33235
2.02626
2.07748
2.15851
2.33233
2.02623
2.13643
2.28469
2.30408
2.14483
2.30409
2.14489
2.13647
2.1585
2.07748
2.33232
2.02623
2.33233
2.02626
2.15842
2.3396
2.3396
2.26831
2.19573
2.26831
2.28656
2.31704
2.28656
2.19572
2.26831
2.26831
2.31704
2.28657
2.28657
2.27513
2.35689
2.06
2.17343
2.27521
2.35689
2.05991
2.29067
2.14253
2.02171
2.07409
2.29072
2.14251
2.0216
2.2752
2.17342
2.35689
2.05991
2.35689
2.05999
2.27512
2.29072
2.07409
2.14251
2.02159
2.14253
2.02171
2.29067
2.32142
2.258
2.11324
2.32142
2.258
2.37206
2.19742
2.08478
2.04859
2.37207
2.19744
2.08478
2.11324
2.32142
2.258
2.32142
2.258
2.37207
2.04858
2.19743
2.08477
2.19741
2.08477
2.37206
2.1381
2.24316
2.13812
2.24314
2.03738
2.25553
1.98597
2.07973
2.0374
2.25552
1.9859
2.05055
1.99881
2.00702
1.99121
2.05059
2.007
1.99874
2.29284
2.29284
2.13812
2.24314
2.1381
2.24316
2.0374
2.07975
2.25552
1.98589
2.25552
1.98597
2.03738
2.0506
1.99128
1.99873
2.00698
2.00702
2.05055
1.99881
2.33139
2.18383
2.3309
2.18386
2.28733
2.28868
2.25032
2.08728
1.99601
2.00891
2.24938
2.08761
1.99726
2.33185
2.1839
2.18383
2.3324
2.29145
2.29013
2.25123
2.00896
2.088
1.99951
2.08761
1.99824
2.25224
2.11581
2.20528
2.10013
2.23449
2.11611
2.20504
2.1
2.03154
2.24145
2.13947
2.0035
2.13972
2.0036
2.03104
2.11599
2.23453
2.20494
2.09992
2.20518
2.10006
2.11569
2.15841
2.33232
2.02626
2.07747
2.15849
2.3323
2.02623
2.1364
2.28464
2.30404
2.14476
2.30405
2.14483
2.13643
2.15848
2.07748
2.33229
2.02622
2.33231
2.02625
2.1584
1.9659
1.96329
2.33959
2.3396
2.26831
2.19572
2.26831
2.28657
2.31704
2.28657
2.19571
2.26831
2.26831
2.31704
2.28657
2.28657
2.27512
2.35689
2.05999
2.17344
2.2752
2.3569
2.05991
2.29067
2.14253
2.02171
2.0741
2.29072
2.14252
2.0216
2.27519
2.17342
2.3569
2.0599
2.3569
2.05999
2.27511
2.29072
2.0741
2.14252
2.02159
2.14254
2.02171
2.29067
2.32142
2.258
2.11324
2.32142
2.258
2.37206
2.1974
2.08477
2.04858
2.37206
2.19743
2.08477
2.11325
2.32142
2.258
2.32142
2.258
2.37207
2.04857
2.19742
2.08477
2.1974
2.08477
2.37206
2.1381
2.24316
2.13812
2.24314
2.03738
2.25552
1.98597
2.07973
2.0374
2.25551
1.9859
2.05056
1.99881
2.00702
1.99121
2.05059
2.00701
1.99874
2.29284
2.29284
2.13812
2.24313
2.1381
2.24316
2.0374
2.07974
2.25551
1.98589
2.25551
1.98597
2.03738
2.0506
1.99128
1.99873
2.00699
2.00702
2.05055
1.99881
2.33351
2.18392
2.33291
2.18404
2.29285
2.29412
2.25427
2.08806
2.00052
2.01065
2.2532
2.0885
2.0018
2.33406
2.18426
2.18409
2.33471
2.29672
2.29548
2.25528
2.01079
2.0891
2.00412
2.08861
2.00282
2.2564
2.11559
2.20509
2.1
2.23439
2.11588
2.20486
2.09986
2.03128
2.24125
2.13926
2.00341
2.13949
2.00345
2.03081
2.11578
2.23443
2.20478
2.0998
2.20501
2.09994
2.1155
2.15839
2.33229
2.02625
2.07747
2.15847
2.33228
2.02622
2.13636
2.28458
2.304
2.14469
2.30402
2.14476
2.1364
2.15846
2.07747
2.33227
2.02622
2.33228
2.02625
2.15838
1.97512
1.97277
2.33959
2.33959
2.2683
2.1957
2.2683
2.28657
2.31705
2.28657
2.1957
2.2683
2.2683
2.31704
2.28657
2.28657
2.27511
2.3569
2.05999
2.17345
2.27519
2.3569
2.0599
2.29067
2.14254
2.02171
2.0741
2.29072
2.14252
2.02159
2.27518
2.17343
2.35691
2.05989
2.3569
2.05998
2.2751
2.29072
2.0741
2.14252
2.02159
2.14254
2.0217
2.29068
2.32142
2.258
2.11324
2.32142
2.258
2.37206
2.19739
2.08477
2.04858
2.37206
2.19742
2.08477
2.11324
2.32141
2.258
2.32142
2.258
2.37207
2.04856
2.19741
2.08477
2.19739
2.08477
2.37206
2.1381
2.24316
2.13811
2.24313
2.03738
2.25551
1.98597
2.07972
2.0374
2.2555
1.9859
2.05056
1.99881
2.00703
1.99122
2.05059
2.00701
1.99874
2.29284
2.29284
2.13812
2.24313
2.1381
2.24315
2.0374
2.07974
2.2555
1.98589
2.2555
1.98597
2.03737
2.0506
1.99128
1.99873
2.00699
2.00703
2.05055
1.99881
2.33598
2.18435
2.3353
2.18455
2.29803
2.29922
2.2586
2.08926
2.00515
2.0128
2.25745
2.08979
2.00645
2.3366
2.18492
2.18468
2.33731
2.30163
2.30048
2.25968
2.013
2.09056
2.00879
2.08998
2.00748
2.26087
2.11542
2.20494
2.09988
2.2343
2.1157
2.20471
2.09975
2.03114
2.2412
2.13914
2.00355
2.13935
2.00353
2.0307
2.11563
2.23434
2.20465
2.0997
2.20487
2.09983
2.11536
2.15837
2.33227
2.02625
2.07746
2.15845
2.33225
2.02622
2.13633
2.28453
2.30397
2.14463
2.30398
2.14469
2.13636
2.15844
2.07746
2.33224
2.02621
2.33226
2.02624
2.15836
2.45487
1.98336
1.98125
2.33958
2.33958
2.26829
2.19568
2.26829
2.28657
2.31705
2.28657
2.19568
2.26829
2.26829
2.31704
2.28657
2.28657
2.2751
2.35691
2.05998
2.17346
2.27517
2.35691
2.05989
2.29068
2.14254
2.0217
2.0741
2.29072
2.14252
2.02159
2.27517
2.17344
2.35692
2.05988
2.35691
2.05997
2.27509
2.29073
2.0741
2.14252
2.02158
2.14254
2.0217
2.29068
2.32142
2.258
2.11324
2.32141
2.258
2.37206
2.19738
2.08477
2.04857
2.37206
2.19741
2.08477
2.11324
2.32141
2.258
2.32141
2.258
2.37207
2.04855
2.1974
2.08476
2.19738
2.08477
2.37206
2.1381
2.24315
2.13811
2.24313
2.03737
2.25549
1.98597
2.07971
2.0374
2.25549
1.98589
2.05055
1.99881
2.00703
1.99121
2.05059
2.00701
1.99873
2.29285
2.29284
2.13811
2.24312
2.13809
2.24315
2.0374
2.07973
2.25549
1.98589
2.25549
1.98597
2.03737
2.0506
1.99128
1.99872
2.00699
2.00703
2.05055
1.99881
2.3387
2.18509
2.33797
2.18535
2.30283
2.30393
2.26315
2.09078
2.0098
2.01523
2.26195
2.09138
2.01108
2.33938
2.18585
2.18555
2.34014
2.30618
2.30511
2.26425
2.0155
2.0923
2.01343
2.09163
2.01212
2.26549
2.11532
2.20482
2.09979
2.23423
2.11558
2.2046
2.09967
2.03114
2.24132
2.13911
2.00391
2.13929
2.00384
2.03074
2.11554
2.23428
2.20457
2.09965
2.20477
2.09976
2.11529
2.15835
2.33224
2.02624
2.07745
2.15843
2.33223
2.02622
2.13629
2.28448
2.30394
2.14457
2.30395
2.14464
2.13633
2.15842
2.07745
2.33222
2.02621
2.33223
2.02624
2.15833
2.46147
1.99072
1.98879
2.33958
2.33958
2.26828
2.19566
2.26828
2.28657
2.31705
2.28657
2.19566
2.26828
2.26827
2.31705
2.28657
2.28657
2.27508
2.35692
2.05996
2.17346
2.27516
2.35692
2.05987
2.29068
2.14254
2.02169
2.07411
2.29072
2.14253
2.02157
2.27515
2.17344
2.35693
2.05984
2.35692
2.05994
2.27507
2.29073
2.07411
2.14253
2.02156
2.14254
2.02168
2.29068
2.32141
2.258
2.11323
2.3214
2.258
2.37207
2.19737
2.08477
2.04856
2.37207
2.1974
2.08477
2.11323
2.3214
2.258
2.32141
2.258
2.37207
2.04854
2.19739
2.08476
2.19737
2.08476
2.37207
2.1381
2.24314
2.13811
2.24312
2.03737
2.25548
1.98597
2.0797
2.03739
2.25548
1.98589
2.05055
1.9988
2.00703
1.99121
2.05059
2.00701
1.99872
2.29285
2.29285
2.13811
2.24311
2.1381
2.24314
2.03739
2.07971
2.25547
1.98589
2.25548
1.98596
2.03737
2.0506
1.99128
1.99872
2.007
2.00703
2.05056
1.9988
2.34159
2.18608
2.34083
2.18641
2.30735
2.30837
2.26785
2.0926
2.01446
2.01803
2.26664
2.09329
2.01575
2.34226
2.187
2.18666
2.34292
2.31039
2.3095
2.26888
2.01821
2.09425
2.01787
2.09359
2.01666
2.26991
2.11528
2.20475
2.09974
2.23419
2.11553
2.20455
2.09964
2.03125
2.24159
2.13918
2.00443
2.13933
2.00432
2.03088
2.11553
2.23425
2.20454
2.09964
2.20473
2.09974
2.11529
2.15831
2.33222
2.02624
2.07744
2.1584
2.3322
2.02622
2.13624
2.28445
2.30391
2.14452
2.30392
2.14458
2.13628
2.15837
2.07744
2.33219
2.02623
2.33221
2.02624
2.15828
2.46723
2.09827
2.0966
1.95836
1.9972
1.99555
1.96106
2.33959
2.33958
2.26826
2.19565
2.26826
2.28656
2.31705
2.28656
2.19564
2.26822
2.26823
2.31703
2.28653
2.28654
2.27505
2.35693
2.05991
2.17345
2.27513
2.35693
2.0598
2.29068
2.14255
2.02167
2.07412
2.29073
2.14254
2.02155
2.2751
2.17343
2.35693
2.05973
2.35693
2.05986
2.27502
2.29073
2.07412
2.14257
2.02152
2.14258
2.02164
2.2907
2.3214
2.258
2.1132
2.32139
2.25799
2.37207
2.19737
2.08475
2.04853
2.37207
2.1974
2.08475
2.11319
2.32138
2.25794
2.32139
2.25797
2.37207
2.04851
2.1974
2.08472
2.19737
2.08473
2.37208
2.1381
2.24314
2.13811
2.24311
2.03737
2.25546
1.98596
2.07966
2.03739
2.25546
1.98589
2.05057
1.99879
2.00704
1.99122
2.0506
2.00702
1.99872
2.29286
2.29286
2.13812
2.24311
2.13811
2.24313
2.03739
2.07967
2.25545
1.9859
2.25545
1.98596
2.03737
2.05061
1.99129
1.99871
2.00703
2.00705
2.05058
1.99879
2.34399
2.18725
2.34352
2.18759
2.31124
2.31203
2.27162
2.09449
2.01866
2.02048
2.27078
2.09514
2.01973
2.18794
2.34227
2.34392
2.18774
2.30665
2.31013
2.02029
2.09615
2.27354
2.27253
2.0208
2.0954
2.02026
2.11526
2.20472
2.09974
2.23421
2.11553
2.20453
2.09966
2.00502
2.03144
2.24193
2.13934
2.13948
2.00491
2.03112
2.11547
2.23428
2.20448
2.09969
2.2047
2.09976
2.11517
2.1582
2.33218
2.02625
2.07743
2.15833
2.33216
2.02626
2.13619
2.28442
2.30385
2.14444
2.30386
2.14449
2.13623
2.15825
2.07741
2.3321
2.02637
2.33213
2.02629
2.15808
2.45845
2.11753
2.10634
2.00382
1.96785
1.96662
2.00093
2.33967
2.33977
2.26817
2.19577
2.2682
2.28649
2.31697
2.2865
2.19587
2.2684
2.26824
2.31697
2.2867
2.28654
2.27497
2.35692
2.05977
2.17342
2.27506
2.35693
2.05965
2.29072
2.14262
2.02162
2.07411
2.29075
2.14263
2.02151
2.27501
2.17349
2.35703
2.05966
2.35696
2.05974
2.27494
2.2908
2.07416
2.14273
2.02152
2.14271
2.02162
2.29082
2.32138
2.25789
2.1131
2.32138
2.25785
2.37209
2.19737
2.08471
2.0485
2.37207
2.19743
2.08469
2.11309
2.32143
2.2579
2.3214
2.25785
2.37212
2.04852
2.19748
2.08472
2.19742
2.08471
2.37218
2.13813
2.24313
2.13813
2.24311
2.03739
2.25543
1.98598
2.07959
2.0374
2.25543
1.98593
2.0506
1.99878
2.00707
1.99122
2.05062
2.00705
1.9987
2.2929
2.29292
2.13815
2.24311
2.13814
2.24313
2.03742
2.07964
2.25546
1.98597
2.25544
1.98601
2.03741
2.05064
1.99129
1.99868
2.00705
2.00708
2.05061
1.99876
2.11511
2.20466
2.09983
2.23431
2.11539
2.20446
2.0998
2.2427
2.00544
2.00539
2.03197
2.13959
2.13968
2.03172
2.11536
2.23444
2.20448
2.0999
2.20463
2.09994
2.11514
2.15802
2.33205
2.02648
2.07745
2.15817
2.33202
2.02661
2.13627
2.2845
2.30395
2.14458
2.30387
2.14456
2.13636
2.15821
2.07746
2.33211
2.0268
2.33204
2.02674
2.15819
2.01584
2.07286
2.01847
2.04895
2.01586
2.07287
2.01848
2.05546
2.11024
2.04059
2.07812
2.05544
2.11028
2.04059
2.01581
2.07281
2.01846
2.04893
2.01583
2.07283
2.01847
2.07179
2.03683
2.03652
2.05901
2.07163
2.0362
2.03631
2.02831
2.04488
2.00122
2.07126
2.02832
2.04481
2.00123
2.05546
2.11024
2.04062
2.07816
2.05543
2.11028
2.04062
2.01579
2.07278
2.01845
2.04892
2.0158
2.07279
2.01846
2.07143
2.03562
2.03615
2.05795
2.07127
2.03522
2.03595
2.0283
2.04481
2.00122
2.0712
2.02831
2.04473
2.00122
2.05547
2.11026
2.04065
2.07819
2.05544
2.1103
2.04064
2.01578
2.07276
2.01846
2.04892
2.01579
2.07278
2.01847
2.07108
2.03487
2.03581
2.05723
2.07094
2.0347
2.03564
2.02829
2.04473
2.00122
2.07113
2.0283
2.04465
2.00122
2.05549
2.11027
2.04067
2.07821
2.05546
2.11031
2.04066
2.01577
2.07275
2.01846
2.04893
2.01578
2.07277
2.01848
2.07077
2.03458
2.03552
2.05686
2.07066
2.03462
2.03537
2.02828
2.04464
2.00121
2.07106
2.02829
2.04456
2.0012
2.05551
2.11029
2.04069
2.07823
2.05547
2.11033
2.04068
2.01578
2.07274
2.01847
2.04894
2.01578
2.07276
2.01849
2.07051
2.03472
2.0353
2.05685
2.07043
2.03497
2.0352
2.02827
2.04456
2.00119
2.07098
2.02827
2.04448
2.00119
2.05552
2.1103
2.0407
2.07823
2.05549
2.11034
2.04069
2.01578