/*--------------------------------*- C++ -*----------------------------------*\
  =========                 |
  \\      /  F ield         | OpenFOAM: The Open Source CFD Toolbox
   \\    /   O peration     | Website:  https://openfoam.org
    \\  /    A nd           | Version:  10
     \\/     M anipulation  |
\*---------------------------------------------------------------------------*/
FoamFile
{
    format      ascii;
    class       volScalarField;
    location    "2000";
    object      nut;
}
// * * * * * * * * * * * * * * * * * * * * * * * * * * * * * * * * * * * * * //

dimensions      [0 2 -1 0 0 0 0];

internalField   nonuniform List<scalar> 
8636
(
1.35396
1.19541
1.73572
3.48927
3.1381
3.76707
4.85215
5.00698
5.10381
5.99332
6.165
6.27112
6.93302
7.13527
7.25778
0.592686
0.856246
1.35393
1.1954
1.73573
2.00812
2.48923
2.78778
3.48923
3.1381
3.76703
3.58667
4.25062
4.66295
4.85209
5.00696
5.10375
4.572
5.2701
5.73211
5.99326
6.16493
6.27105
5.485
6.14146
6.62263
6.93298
7.13521
7.25772
0.392623
0.592693
0.856272
1.35392
1.19539
1.73573
2.00739
2.48917
2.78781
3.48921
3.13812
3.767
3.58605
4.25052
4.663
4.85207
5.00697
5.10372
4.57234
5.27001
5.73211
5.99325
6.16492
6.27103
5.48464
6.14142
6.62263
6.93297
7.1352
7.2577
0.392555
0.592696
0.856291
1.35391
1.1954
1.73574
2.00697
2.4891
2.78785
3.4892
3.13816
3.76699
3.58545
4.25039
4.66307
4.85207
5.00702
5.10372
4.57293
5.26997
5.73214
5.99327
6.16494
6.27104
5.48442
6.14139
6.62267
6.93301
7.13522
7.25772
0.392469
0.592694
0.856304
1.35391
1.1954
1.73575
2.00687
2.48903
2.78789
3.4892
3.13821
3.76699
3.58523
4.2503
4.66316
4.85211
5.00709
5.10376
4.57378
5.26998
5.73219
5.99333
6.16501
6.27111
5.48437
6.14139
6.62274
6.93307
7.13529
7.25779
0.392372
0.592689
0.856313
1.35391
1.1954
1.73576
2.00709
2.48897
2.78795
3.48927
3.13827
3.76704
3.58506
4.25025
4.66328
4.8522
5.00721
5.10384
4.57491
5.27008
5.73232
5.99345
6.16513
6.27122
5.48455
6.14145
6.62286
6.9332
7.13542
7.25791
0.392281
0.592682
0.856318
1.35391
1.19541
1.73578
2.00762
2.48893
2.78801
3.48926
3.13835
3.76713
3.58538
4.25029
4.66347
4.85236
5.00741
5.10401
4.57635
5.27031
5.73252
5.99365
6.16536
6.27144
5.48495
6.14163
6.62306
6.93341
7.13564
7.25813
0.392205
0.592674
0.856321
1.35393
1.19541
1.7358
2.00843
2.48892
2.78811
3.48946
3.13847
3.76731
3.58579
4.25043
4.6638
4.85267
5.00775
5.10432
4.57814
5.27072
5.73291
5.99404
6.16575
6.27181
5.48564
6.14193
6.62344
6.93378
7.136
7.25848
0.392152
0.592666
0.856324
1.35395
1.19542
1.73583
2.00954
2.489
2.78829
3.48963
3.13869
3.76764
3.58673
4.25078
4.66443
4.85327
5.00836
5.10487
4.58047
5.2715
5.73357
5.99469
6.16638
6.27242
5.48682
6.1425
6.62398
6.93434
7.13656
7.25904
0.392124
0.592659
0.856331
1.35403
1.19544
1.73592
0.43496
2.01096
2.4893
2.78873
3.49031
3.13915
3.76832
3.58819
4.25165
4.66552
4.85433
5.00938
5.10577
4.58325
5.2727
5.73463
5.99572
6.16737
6.27332
5.48828
6.14339
6.62484
6.93518
7.13737
7.2598
0.392122
0.592659
0.856362
1.35428
1.1955
1.73615
0.437169
2.01292
2.49027
2.78996
3.49143
3.14025
3.76956
3.58934
4.25285
4.66745
4.8561
5.01099
5.10707
4.58674
5.27441
5.73615
5.99712
6.16866
6.27447
5.49002
6.14445
6.62592
6.93621
7.13834
7.2607
0.392126
0.592685
0.856542
1.35525
1.19578
1.73681
0.438586
2.01606
2.49297
2.79326
3.49417
3.14284
3.77141
3.59426
4.25661
4.67005
4.85835
5.013
5.10854
4.58728
5.27569
5.73771
5.99857
6.16995
6.27555
5.48647
6.14439
6.62685
6.93714
7.1392
7.26148
0.392132
0.592926
0.857887
1.35852
1.19811
1.73811
0.34285
2.021
2.49733
2.79854
3.49817
3.14661
3.77261
4.26131
4.67169
4.85951
5.01421
5.10926
5.27646
5.73834
5.99913
6.1705
6.276
6.14454
6.62717
6.93749
7.13955
7.26178
1.45249
1.19074
0.822446
0.749752
0.903238
1.19104
1.01651
1.18982
1.4422
1.19535
1.5161
2.31454
2.35172
0.512885
0.633443
0.740809
0.822592
0.740745
0.822433
0.749756
0.902968
0.749737
0.90324
1.01629
1.19105
1.01652
1.18982
0.85623
1.07288
2.00585
2.15178
1.44222
2.17942
2.24486
1.35392
1.44217
2.17944
2.24482
1.51612
2.31466
2.35174
1.19533
1.51608
2.31461
2.35169
0.393068
0.393074
0.51289
0.633623
0.512902
0.633417
0.740791
0.822582
0.74073
0.822428
0.749744
0.90297
0.749729
0.90324
1.01629
1.19106
1.01653
1.18983
1.18182
0.577705
1.61142
0.392695
0.577615
1.40634
1.61136
0.738379
1.72932
1.83986
0.59263
0.738371
1.7293
1.83984
1.07226
2.00586
2.15182
0.856258
1.07285
2.00589
2.15187
1.4422
2.17948
2.24491
1.3539
1.44216
2.1795
2.24487
1.5161
2.31473
2.35171
1.19533
1.51606
2.31467
2.35167
0.393069
0.393076
0.512905
0.633599
0.512913
0.633397
0.740776
0.822577
0.740718
0.822427
0.749736
0.902969
0.749724
0.903239
1.0163
1.19106
1.01653
1.18984
1.17871
1.18172
0.577723
1.40612
1.61131
0.392641
0.577626
1.40592
1.61124
0.738384
1.72929
1.83984
0.592633
0.738375
1.72927
1.83982
1.07224
2.00591
2.1519
0.856279
1.07283
2.00593
2.15195
1.44219
2.17953
2.24496
1.35389
1.44215
2.17955
2.24491
1.51608
2.31479
2.3517
1.19533
1.51605
2.31473
2.35166
0.393072
0.393078
0.512915
0.63358
0.51292
0.633383
0.740766
0.822578
0.74071
0.822431
0.749733
0.902966
0.749722
0.903236
1.0163
1.19107
1.01653
1.18984
1.1787
1.18202
0.577732
1.40574
1.61119
0.392558
0.577627
1.40559
1.61112
0.738388
1.72926
1.83982
0.592632
0.738378
1.72924
1.83981
1.07222
2.00595
2.15197
0.856294
1.07282
2.00597
2.15201
1.44219
2.17958
2.245
1.35389
1.44216
2.17959
2.24495
1.51607
2.31484
2.3517
1.19533
1.51604
2.31478
2.35166
0.393074
0.39308
0.512921
0.633568
0.512923
0.633373
0.740758
0.822582
0.740704
0.822437
0.74973
0.902965
0.74972
0.903234
1.0163
1.19108
1.01653
1.18985
1.17909
1.18271
0.577731
1.40545
1.61107
0.39246
0.577621
1.40536
1.611
0.738391
1.72923
1.83981
0.592628
0.738381
1.72921
1.83981
1.07221
2.00599
2.15203
0.856304
1.07282
2.00601
2.15206
1.44219
2.17962
2.24504
1.35389
1.44217
2.17963
2.24499
1.51607
2.31489
2.3517
1.19533
1.51604
2.31483
2.35167
0.393076
0.393081
0.512923
0.63356
0.512923
0.633367
0.740753
0.822589
0.740701
0.822444
0.749728
0.902962
0.749718
0.903231
1.0163
1.19108
1.01653
1.18986
1.17985
1.18372
0.577723
1.40528
1.61096
0.392365
0.577609
1.40525
1.6109
0.738393
1.7292
1.83981
0.592622
0.738383
1.72918
1.83981
1.07221
2.00602
2.15208
0.85631
1.07282
2.00604
2.15212
1.44221
2.17965
2.24508
1.35389
1.44218
2.17967
2.24503
1.51607
2.31494
2.35172
1.19534
1.51604
2.31488
2.35169
1.44226
0.393077
0.393081
0.512922
0.633556
0.51292
0.633365
0.74075
0.822595
0.740701
0.82245
0.749726
0.902961
0.749715
0.903231
1.0163
1.19109
1.01653
1.18987
1.18092
1.18502
0.577711
1.40524
1.61087
0.392284
0.577595
1.40527
1.61083
0.738395
1.72917
1.83982
0.592614
0.738385
1.72916
1.83982
1.07222
2.00606
2.15214
0.856313
1.07283
2.00609
2.15218
1.44222
2.1797
2.24513
1.3539
1.4422
2.17971
2.24509
1.51607
2.31499
2.35175
1.19535
1.51605
2.31494
2.35173
1.44442
1.4455
0.393078
0.393081
0.51292
0.633555
0.512917
0.633366
0.740748
0.822601
0.740699
0.822458
0.749724
0.902958
0.749712
0.903231
1.0163
1.1911
1.01653
1.18988
1.18226
1.18656
0.577695
1.40533
1.61082
0.392222
0.57758
1.40543
1.61081
0.738397
1.72916
1.83984
0.592606
0.738388
1.72916
1.83986
1.07222
2.00612
2.1522
0.856316
1.07284
2.00616
2.15226
1.44224
2.17975
2.24519
1.35391
1.44223
2.17979
2.24517
1.51609
2.31507
2.3518
1.19535
1.51607
2.31504
2.35181
1.448
1.44937
0.393078
0.393082
0.512917
0.633556
0.512913
0.633368
0.740749
0.822609
0.740702
0.822466
0.74972
0.902959
0.749708
0.903238
1.0163
1.1911
1.01654
1.18989
1.18382
1.18829
0.57768
1.40556
1.61083
0.392184
0.577568
1.40575
1.61089
0.7384
1.72918
1.8399
0.592599
0.738394
1.72922
1.83996
1.07223
2.00621
2.15231
0.856323
1.07286
2.0063
2.15242
1.44229
2.17986
2.24531
1.35396
1.44229
2.17995
2.24534
1.51612
2.3152
2.3519
1.19537
1.51612
2.31522
2.35196
1.45219
0.434167
1.45401
0.393078
0.393082
0.512912
0.633559
0.512911
0.633373
0.740753
0.822619
0.740713
0.822486
0.749716
0.902964
0.749708
0.903259
1.0163
1.19111
1.01656
1.18991
1.18556
1.1902
0.57767
1.40596
1.61097
0.392186
0.577565
1.40625
1.61113
0.738407
1.7293
1.84007
0.592599
0.738414
1.72946
1.84027
1.07226
2.00643
2.15255
0.856348
1.07292
2.00667
2.15283
1.44238
2.18012
2.24558
1.35409
1.44244
2.1804
2.24579
1.5162
2.31548
2.35214
1.19542
1.51625
2.31568
2.35234
1.45698
0.436534
1.45774
0.393081
0.393087
0.512911
0.633564
0.512925
0.633386
0.740766
0.822641
0.740757
0.822554
0.749718
0.902981
0.749722
0.903335
1.01632
1.19113
1.01665
1.18996
1.18748
1.19216
0.577667
1.4066
1.61141
0.392187
0.577583
1.4071
1.61191
0.73843
1.72975
1.84064
0.59262
0.738492
1.73029
1.84128
1.07233
2.00708
2.15326
0.85646
1.07311
2.00784
2.15408
1.44265
2.18092
2.24634
1.35457
1.44295
2.18185
2.24717
1.51642
2.31625
2.35276
1.1956
1.51665
2.31699
2.35337
1.46107
0.438306
1.46641
0.393098
0.393149
0.512936
0.633604
0.513122
0.633451
0.740827
0.822734
0.741047
0.82295
0.749742
0.903052
0.749855
0.903664
1.0164
1.19119
1.01699
1.19012
1.18934
1.19408
0.577689
1.40777
1.61278
0.392275
0.577742
1.40888
1.61418
0.738533
1.73118
1.84237
0.592791
0.738985
1.73252
1.84401
1.07261
2.00912
2.15554
0.857336
1.07437
2.01112
2.15808
1.44358
2.18345
2.24867
1.35655
1.44468
2.18589
2.25078
1.51713
2.31833
2.35439
1.19707
1.51793
2.32017
2.35574
1.46717
0.389918
1.46517
0.393215
0.393354
0.513266
0.633886
0.51376
0.634114
0.741265
0.823311
0.741805
0.823817
0.74996
0.903431
0.750343
0.904268
1.01677
1.19133
1.01756
1.19025
0.577919
1.41016
1.61574
0.391905
0.578106
1.41096
1.61657
0.7393
1.73402
1.84593
0.593227
0.740309
1.73485
1.847
1.0745
2.01353
2.16137
0.859648
1.0772
2.01492
2.16345
1.44632
2.18871
2.25324
1.35972
1.4473
2.18995
2.25424
1.51908
2.32255
2.35725
1.20018
1.5197
2.32391
2.35796
0.552441
0.229926
0.447259
0.95928
0.68748
1.00479
0.644367
0.41476
0.414133
0.413264
0.413609
0.34101
0.390758
0.203251
0.1183
0.436434
0.590099
0.439401
0.588408
0.40949
0.375754
0.809571
1.19388
0.797742
0.532411
0.892663
0.542978
0.892382
0.429997
0.58684
0.532348
0.891403
0.388985
0.388964
1.85296
1.73567
1.85275
2.48978
2.59947
0.388986
0.388965
1.85292
2.49
2.60056
1.73567
1.85273
2.48983
2.59948
0.388987
0.388966
1.02477
0.610222
0.989162
0.592632
1.02418
0.610097
0.988588
1.8529
2.49004
2.60057
1.73567
1.85271
2.48986
2.59949
0.388988
0.388967
0.87875
0.530894
0.731271
0.392674
0.880431
0.530669
0.731086
1.02477
0.610231
0.989167
0.592638
1.02418
0.610107
0.98859
1.85289
2.49007
2.60059
1.73568
1.85271
2.4899
2.59951
0.388989
0.388968
0.878629
0.530866
0.731064
0.392604
0.880315
0.530634
0.73088
1.02476
0.610239
0.989165
0.59264
1.02418
0.610113
0.988586
1.85289
2.4901
2.6006
1.73569
1.85271
2.48993
2.59952
0.388989
0.388969
0.878499
0.530817
0.730869
0.392512
0.880184
0.530582
0.730692
1.02475
0.610243
0.989156
0.592637
1.02417
0.610116
0.988577
1.8529
2.49013
2.60062
1.7357
1.85272
2.48995
2.59955
0.38899
0.388969
0.878376
0.530759
0.73071
0.392414
0.880058
0.530523
0.730544
1.02475
0.610243
0.989142
0.592631
1.02416
0.610116
0.988563
1.85291
2.49016
2.60065
1.73571
1.85273
2.48998
2.59958
0.388989
0.388969
0.878276
0.530701
0.730603
0.392325
0.879952
0.530466
0.730452
1.02474
0.610241
0.989127
0.592624
1.02415
0.610113
0.988548
1.85292
2.49019
2.60068
1.73573
1.85275
2.49003
2.59963
0.728228
0.729968
0.388988
0.388968
0.878213
0.53065
0.730558
0.392253
0.879878
0.530418
0.730423
1.02473
0.610237
0.98911
0.592616
1.02414
0.610108
0.988533
1.85295
2.49025
2.60074
1.73576
1.8528
2.49011
2.59973
0.733727
0.73534
0.388988
0.388967
0.878192
0.530612
0.730581
0.392204
0.879845
0.530385
0.730462
1.02473
0.610231
0.989097
0.592608
1.02414
0.610102
0.988527
1.85301
2.49036
2.60085
1.73581
1.85288
2.49028
2.59991
0.432831
0.738708
0.740197
0.388986
0.388966
0.878223
0.530593
0.730669
0.392181
0.87986
0.530371
0.730567
1.02476
0.610227
0.989095
0.592604
1.02415
0.610096
0.988539
1.85312
2.49062
2.60109
1.73596
1.85306
2.49069
2.60032
0.435402
0.743185
0.744563
0.388985
0.388965
0.878318
0.530589
0.730816
0.392199
0.879925
0.530371
0.730727
1.02486
0.610227
0.989122
0.59261
1.02419
0.610093
0.988616
1.8534
2.49127
2.60165
1.73635
1.8535
2.49176
2.60126
0.437544
0.747229
0.74847
0.388987
0.388966
0.878589
0.530607
0.731001
0.392191
0.880069
0.530422
0.730948
1.0253
0.610259
0.989282
0.592668
1.0244
0.610106
0.988969
1.85407
2.49289
2.60292
1.73736
1.85446
2.49401
2.60296
0.718264
0.435808
0.713855
1.07136
0.750019
1.06948
0.749275
0.389003
0.388975
0.731264
0.3921
0.731117
0.879522
0.530772
0.880715
0.530641
1.02708
0.610485
0.990214
0.593042
1.02557
0.610271
0.990431
1.85518
2.49538
2.60467
1.73846
1.85533
2.49565
2.60414
0.388988
0.401466
0.501276
0.39722
0.822599
0.484384
0.761006
0.484407
0.761758
0.397379
0.749767
0.401424
0.684983
0.401423
0.685058
0.405516
0.902966
0.544541
0.77924
0.54451
0.779199
0.4055
0.501285
0.401421
0.501297
0.401465
0.836191
0.739868
1.21192
1.18987
0.836296
1.21106
0.73975
0.388968
0.388988
0.501299
0.401467
0.501278
0.401425
0.728927
1.01628
0.606914
1.1294
0.606976
1.12998
0.728869
0.8363
1.19103
0.739743
1.21101
1.21192
0.836176
0.73987
0.512879
0.573721
0.573773
0.633644
0.605058
0.605146
0.389713
0.383263
0.718501
0.740766
0.389537
0.38328
0.717896
0.397379
0.484403
0.761769
0.822457
0.397219
0.484389
0.761018
0.389543
0.740799
0.383276
0.717894
0.383259
0.718505
0.389717
0.397225
0.822586
0.48438
0.761014
0.484401
0.761767
0.397383
0.401414
0.68504
0.749749
0.401415
0.684968
0.405497
0.544512
0.779193
0.903259
0.405513
0.54455
0.779247
0.74975
0.401412
0.684958
0.401409
0.685032
0.405516
0.902969
0.544544
0.779228
0.544513
0.779186
0.405498
0.501287
0.401422
0.501299
0.401466
0.72888
0.606973
1.12999
1.01654
0.728928
0.606912
1.12943
0.836195
0.739883
1.21192
1.18988
0.8363
1.21106
0.739765
0.388969
0.388989
0.501301
0.401469
0.501281
0.401427
0.728932
1.01629
0.606919
1.1294
0.606983
1.12999
0.728875
0.836304
1.19104
0.739756
1.21101
1.21191
0.83618
0.739884
0.393071
0.393069
0.573762
0.5129
0.573718
0.605125
0.633429
0.605044
0.512898
0.573716
0.573765
0.633617
0.605032
0.60512
0.389716
0.383251
0.718518
0.740748
0.38954
0.383268
0.717911
0.397383
0.484399
0.761777
0.822448
0.397222
0.484386
0.761025
0.389545
0.740783
0.383264
0.717906
0.383249
0.718518
0.389718
0.397228
0.822578
0.484379
0.76102
0.4844
0.761774
0.397386
0.401402
0.685015
0.749738
0.401405
0.684945
0.405493
0.544514
0.77918
0.90326
0.405511
0.544552
0.779235
0.74974
0.401404
0.684936
0.401399
0.685009
0.405513
0.902969
0.544546
0.779214
0.544515
0.779174
0.405494
0.501289
0.401424
0.501301
0.401468
0.728886
0.606979
1.12999
1.01655
0.728933
0.606917
1.12944
0.836199
0.739896
1.21192
1.18989
0.836303
1.21106
0.739776
0.38897
0.388989
0.501303
0.401471
0.501282
0.401429
0.728937
1.0163
0.606925
1.12941
0.606988
1.13
0.72888
0.836307
1.19105
0.739767
1.21101
1.21192
0.836184
0.739896
0.438562
0.590506
0.590851
0.438452
1.17887
0.890266
0.889782
0.942977
0.568946
0.96516
0.577612
0.94476
0.568736
0.964314
0.880473
0.392646
0.53067
0.731177
0.530896
0.731367
0.878787
0.944754
0.577715
0.56874
0.964301
0.568958
0.965165
0.942965
1.08751
0.642539
1.16437
0.738377
1.08685
0.642384
1.16421
1.02418
0.592691
0.610103
0.988572
0.610233
0.989166
1.02475
1.08685
0.738381
0.642387
1.1642
0.64255
1.16437
1.08749
0.393073
0.393072
0.573758
0.512914
0.573715
0.605103
0.633406
0.605023
0.512911
0.573716
0.573765
0.633596
0.605015
0.605101
0.389718
0.383241
0.718529
0.740734
0.389542
0.383256
0.71792
0.397385
0.484399
0.761783
0.822445
0.397225
0.484387
0.761031
0.389546
0.74077
0.383251
0.717912
0.383239
0.718526
0.389719
0.39723
0.822577
0.48438
0.761025
0.484401
0.761779
0.397388
0.401394
0.684993
0.749732
0.401398
0.684926
0.405488
0.544514
0.779168
0.903259
0.405505
0.544553
0.779223
0.749735
0.401398
0.684919
0.401393
0.684991
0.405507
0.902967
0.544545
0.779203
0.544515
0.779161
0.405488
0.501291
0.401426
0.501303
0.40147
0.728891
0.606983
1.13
1.01656
0.728939
0.606921
1.12945
0.836203
0.739906
1.21192
1.1899
0.836307
1.21106
0.739786
0.388971
0.388991
0.501305
0.401473
0.501284
0.401431
0.728942
1.0163
0.606928
1.12942
0.606991
1.13001
0.728884
0.836311
1.19105
0.739776
1.21101
1.21192
0.836188
0.739905
0.438375
0.590683
0.438463
0.590348
0.889606
1.18171
0.890117
0.438399
0.590197
0.590535
0.43832
1.17865
0.889997
0.889468
0.942966
0.568967
0.96517
0.577627
0.944758
0.568752
0.964318
0.880374
0.392596
0.530648
0.730972
0.530883
0.731166
0.878679
0.944736
0.577729
0.568746
0.964298
0.568969
0.965166
0.94294
1.08751
0.642545
1.16438
0.738382
1.08684
0.642389
1.16422
1.02418
0.592696
0.610111
0.988571
0.610242
0.989167
1.02475
1.08684
0.738386
0.642391
1.1642
0.642555
1.16438
1.08748
0.393075
0.393074
0.573759
0.512923
0.573716
0.605087
0.633389
0.605009
0.512919
0.573718
0.573767
0.63358
0.605004
0.605089
0.389719
0.383232
0.718534
0.740724
0.389543
0.383245
0.717924
0.397387
0.484401
0.761789
0.822447
0.397226
0.484389
0.761036
0.389547
0.740762
0.383243
0.717914
0.38323
0.718529
0.38972
0.397231
0.822579
0.484384
0.76103
0.484404
0.761784
0.397389
0.401388
0.684977
0.749729
0.401395
0.684911
0.405482
0.544514
0.779156
0.903257
0.405499
0.544552
0.779213
0.749732
0.401395
0.684906
0.401389
0.684977
0.4055
0.902966
0.544544
0.779194
0.544514
0.779153
0.405482
0.501292
0.401428
0.501304
0.401473
0.728894
0.606987
1.13001
1.01656
0.728943
0.606924
1.12945
0.836206
0.739914
1.21192
1.1899
0.836311
1.21107
0.739793
0.388972
0.388991
0.501306
0.401476
0.501285
0.401434
0.728945
1.0163
0.606929
1.12942
0.606993
1.13001
0.728887
0.836314
1.19106
0.739782
1.21102
1.21192
0.836191
0.739911
0.438303
0.590379
0.438361
0.590057
0.88938
1.18182
0.889938
0.438358
0.58993
0.590252
1.17885
0.889909
0.889334
0.942927
0.568968
0.965163
0.577633
0.944726
0.568749
0.964308
0.880248
0.392518
0.530604
0.730771
0.530842
0.730962
0.87855
0.944693
0.577732
0.568735
0.964282
0.568961
0.965152
0.942891
1.0875
0.642549
1.16438
0.738386
1.08683
0.642392
1.16423
1.02417
0.592696
0.610116
0.988564
0.610248
0.989161
1.02474
1.08683
0.738389
0.642393
1.16421
0.642558
1.16438
1.08747
0.393077
0.393076
0.573762
0.512928
0.573719
0.605079
0.633377
0.605
0.512922
0.573722
0.573771
0.633571
0.604998
0.605083
0.389719
0.383224
0.718535
0.740719
0.389543
0.383238
0.717924
0.397388
0.484405
0.761793
0.822451
0.397227
0.484393
0.76104
0.389548
0.740755
0.383237
0.717913
0.383224
0.718528
0.389721
0.397232
0.822585
0.484388
0.761033
0.484408
0.761788
0.397392
0.401386
0.684965
0.749727
0.401393
0.684899
0.405476
0.544512
0.779149
0.903255
0.405493
0.54455
0.779206
0.74973
0.401394
0.684896
0.401388
0.684967
0.405495
0.902963
0.544542
0.779189
0.544513
0.779146
0.405477
0.501293
0.401431
0.501305
0.401475
0.728897
0.606988
1.13001
1.01656
0.728945
0.606925
1.12946
0.836209
0.739919
1.21193
1.18991
0.836314
1.21107
0.739798
0.388973
0.388991
0.501307
0.401478
0.501286
0.401436
0.728947
1.0163
0.606929
1.12943
0.606994
1.13002
0.728889
0.836317
1.19107
0.739785
1.21102
1.21193
0.836194
0.739916
0.590128
0.589825
0.889337
1.18232
0.889942
0.589738
0.590039
1.17942
0.890006
0.889383
0.942871
0.568954
0.965144
0.577631
0.944674
0.568731
0.964287
0.880118
0.392424
0.530547
0.730601
0.530788
0.730783
0.878421
0.944633
0.577728
0.568711
0.964256
0.56894
0.965128
0.942829
1.08749
0.642551
1.16439
0.738389
1.08683
0.642393
1.16423
1.02417
0.592693
0.610117
0.988552
0.610251
0.98915
1.02473
1.08682
0.738392
0.642393
1.16421
0.642559
1.16439
1.08747
0.393079
0.393078
0.573766
0.512929
0.573723
0.605075
0.633369
0.604997
0.512923
0.573725
0.573774
0.633566
0.604996
0.605081
0.38972
0.383218
0.718532
0.740714
0.389545
0.383233
0.717921
0.397389
0.484409
0.761796
0.822458
0.397228
0.484398
0.761042
0.389549
0.740752
0.383233
0.717908
0.383219
0.718524
0.389722
0.397234
0.822591
0.484392
0.761036
0.484412
0.761791
0.397393
0.401385
0.684957
0.749725
0.401393
0.684891
0.405471
0.544511
0.779143
0.903252
0.405488
0.544549
0.7792
0.749728
0.401394
0.68489
0.401388
0.68496
0.40549
0.902961
0.544541
0.779185
0.544512
0.779142
0.405472
0.501294
0.401433
0.501306
0.401477
0.728897
0.606988
1.13002
1.01656
0.728947
0.606925
1.12946
0.836211
0.739923
1.21193
1.18992
0.836317
1.21108
0.739801
0.388972
0.388991
0.501307
0.40148
0.501286
0.401439
0.728948
1.0163
0.606929
1.12943
0.606993
1.13002
0.728889
0.836319
1.19108
0.739787
1.21103
1.21193
0.836195
0.739917
0.589959
0.58968
0.889478
1.18317
0.89013
0.438645
0.589643
0.589919
0.43865
0.431825
0.431421
0.54897
1.18034
0.890281
0.81491
0.889612
0.813712
0.548373
0.942805
0.568928
0.965115
0.577622
0.94461
0.568702
0.964257
0.88
0.392329
0.530488
0.73048
0.530729
0.730649
0.878309
0.944568
0.577717
0.56868
0.964224
0.568911
0.965096
0.942763
1.08749
0.64255
1.16439
0.738391
1.08682
0.642392
1.16424
1.02416
0.592687
0.610115
0.988536
0.61025
0.989135
1.02472
1.08682
0.738394
0.642391
1.16422
0.642557
1.16439
1.08746
0.39308
0.393079
0.573769
0.512928
0.573726
0.605073
0.633365
0.604996
0.512921
0.573728
0.573777
0.633563
0.604996
0.605081
0.389722
0.383214
0.718527
0.740711
0.389546
0.38323
0.717915
0.39739
0.484414
0.761798
0.822464
0.39723
0.484402
0.761045
0.38955
0.740749
0.38323
0.717902
0.383216
0.718519
0.389723
0.397235
0.822597
0.484396
0.761039
0.484416
0.761794
0.397393
0.401386
0.684951
0.749722
0.401393
0.684886
0.405467
0.54451
0.779141
0.903251
0.405483
0.544547
0.779197
0.749726
0.401394
0.684886
0.401389
0.684955
0.405486
0.902959
0.54454
0.779183
0.544511
0.77914
0.405469
0.501293
0.401435
0.501306
0.401479
0.728897
0.606987
1.13002
1.01656
0.728947
0.606924
1.12946
0.836212
0.739923
1.21194
1.18992
0.836318
1.21108
0.739801
0.388972
0.38899
0.501307
0.401482
0.501285
0.401441
0.728947
1.0163
0.606927
1.12943
0.606992
1.13002
0.728887
0.83632
1.19108
0.739786
1.21103
1.21194
0.836196
0.739917
0.438809
0.589889
0.438781
0.589637
0.432569
0.432952
0.548476
0.889793
0.814963
1.18434
0.549089
0.890489
0.816165
0.438955
0.589652
0.589902
0.438985
0.434039
0.433685
0.549225
1.18155
0.89072
0.8174
0.890009
0.816205
0.548587
0.942741
0.568896
0.965083
0.577608
0.944545
0.56867
0.964226
0.879909
0.392245
0.530435
0.730419
0.530673
0.730572
0.878227
0.944506
0.577703
0.568647
0.964193
0.568878
0.965065
0.942702
1.08748
0.642548
1.1644
0.738393
1.08682
0.642389
1.16425
1.02415
0.592679
0.610111
0.988521
0.610247
0.989119
1.02471
1.08682
0.738396
0.642388
1.16423
0.642555
1.1644
1.08746
0.732717
0.731042
0.393081
0.39308
0.573772
0.512925
0.573729
0.605074
0.633364
0.604997
0.512918
0.57373
0.573779
0.633563
0.604998
0.605083
0.389723
0.383213
0.71852
0.740711
0.389548
0.383228
0.717907
0.397391
0.484418
0.761801
0.822472
0.39723
0.484406
0.761047
0.389552
0.740749
0.383229
0.717892
0.383214
0.718508
0.389725
0.397235
0.822605
0.4844
0.76104
0.484421
0.761795
0.397394
0.401387
0.684948
0.74972
0.401395
0.684884
0.405464
0.544509
0.779139
0.903252
0.40548
0.544545
0.779198
0.749723
0.401395
0.684884
0.401391
0.684953
0.405483
0.902959
0.544538
0.779184
0.544509
0.77914
0.405466
0.501293
0.401437
0.501305
0.401481
0.728896
0.606985
1.13002
1.01656
0.728945
0.606921
1.12947
0.836213
0.739922
1.21194
1.18993
0.836317
1.21109
0.739799
0.388971
0.388989
0.501306
0.401484
0.501284
0.401443
0.728946
1.0163
0.606924
1.12944
0.60699
1.13002
0.728886
0.836321
1.19109
0.739784
1.21104
1.21194
0.836197
0.739915
0.43919
0.589924
0.439144
0.589698
0.434753
0.435085
0.548709
0.890268
0.817449
1.18576
0.549336
0.891004
0.818647
0.439362
0.589764
0.589992
0.439409
0.436089
0.435786
0.549488
1.18301
0.891304
0.819869
0.890556
0.818681
0.548829
0.942685
0.568863
0.965051
0.577593
0.944486
0.568637
0.964196
0.879854
0.392179
0.530394
0.730423
0.530628
0.73056
0.878183
0.944451
0.577688
0.568616
0.964168
0.568845
0.965034
0.942652
1.08749
0.642545
1.1644
0.738395
1.08681
0.642386
1.16426
1.02414
0.59267
0.610105
0.988511
0.610242
0.989104
1.02471
1.08682
0.738398
0.642384
1.16424
0.642552
1.16441
1.08747
0.737828
0.73628
0.393081
0.39308
0.573774
0.512921
0.57373
0.605077
0.633366
0.605
0.512914
0.573731
0.573781
0.633565
0.605001
0.605086
0.389725
0.383211
0.718508
0.740711
0.389549
0.383226
0.717895
0.397391
0.484421
0.761801
0.82248
0.397231
0.484409
0.761046
0.389554
0.74075
0.383228
0.717879
0.383213
0.718496
0.389726
0.397236
0.822613
0.484402
0.761039
0.484424
0.761794
0.397394
0.401389
0.684947
0.749716
0.401396
0.684882
0.405461
0.544507
0.77914
0.903254
0.405477
0.544545
0.7792
0.749719
0.401396
0.684884
0.401392
0.684952
0.405482
0.902959
0.544537
0.77919
0.544507
0.779142
0.405464
0.501291
0.401438
0.501305
0.401482
0.728893
0.606983
1.13003
1.01656
0.728943
0.606919
1.12947
0.836213
0.739919
1.21195
1.18994
0.836318
1.2111
0.739796
0.388969
0.388988
0.501305
0.401485
0.501284
0.401444
0.728943
1.0163
0.606921
1.12945
0.606988
1.13003
0.728886
0.83632
1.1911
0.739781
1.21106
1.21195
0.836199
0.739911
0.439651
0.590066
0.439592
0.58986
0.436768
0.43705
0.548983
0.890881
0.819906
1.1874
0.549609
0.89165
0.82109
0.439845
0.589975
0.590183
0.439907
0.437967
0.437713
0.549787
1.18467
0.892009
0.822283
0.89123
0.821108
0.549105
0.942643
0.568832
0.965026
0.577579
0.944439
0.568609
0.964178
0.879845
0.39214
0.53037
0.730496
0.530599
0.730614
0.878187
0.944417
0.577674
0.568592
0.964162
0.568818
0.965019
0.942623
1.08749
0.642542
1.16441
0.738399
1.08682
0.642382
1.16427
1.02414
0.592663
0.610099
0.98851
0.610236
0.989096
1.02472
1.08682
0.738403
0.64238
1.16427
0.642549
1.16442
1.08748
0.433678
0.742432
0.741006
0.393081
0.393081
0.573775
0.512917
0.57373
0.605081
0.633369
0.605003
0.51291
0.573731
0.573783
0.633571
0.605006
0.605092
0.389726
0.383211
0.718495
0.740718
0.389551
0.383226
0.717883
0.397391
0.484423
0.7618
0.822492
0.397231
0.484411
0.761046
0.389557
0.740757
0.383227
0.717867
0.383213
0.718481
0.389728
0.397236
0.822627
0.484405
0.761037
0.484425
0.761792
0.397392
0.401389
0.684948
0.749714
0.401397
0.684884
0.405459
0.544505
0.779147
0.903266
0.405476
0.544545
0.779208
0.749717
0.401398
0.684887
0.401394
0.684956
0.405481
0.902968
0.544538
0.779202
0.544507
0.779152
0.405464
0.501291
0.40144
0.501303
0.401483
0.728894
0.606981
1.13003
1.01657
0.728942
0.606916
1.12949
0.836217
0.739916
1.21196
1.18995
0.83632
1.21112
0.739794
0.388969
0.388986
0.501304
0.401486
0.501284
0.401445
0.728943
1.01631
0.606918
1.12948
0.606987
1.13004
0.728888
0.836325
1.19111
0.73978
1.2111
1.21197
0.836206
0.73991
0.440177
0.590299
0.440106
0.590119
0.438611
0.438838
0.549292
0.89161
0.822299
1.18921
0.549945
0.892409
0.823469
0.440385
0.590266
0.59046
0.440452
0.439676
0.439464
0.550135
1.18649
0.892825
0.824639
0.892012
0.823472
0.549394
0.942626
0.56881
0.965019
0.577571
0.944416
0.568589
0.964188
0.879885
0.392127
0.530365
0.730633
0.530589
0.730736
0.878249
0.944403
0.577667
0.568577
0.964196
0.5688
0.965025
0.942618
1.08753
0.64254
1.16444
0.73841
1.08683
0.642378
1.16432
1.02416
0.592659
0.610094
0.988547
0.610233
0.989102
1.02477
1.08685
0.738415
0.642378
1.16436
0.64255
1.16447
1.08755
0.436136
0.746593
0.745263
0.393083
0.393089
0.57378
0.512919
0.573733
0.60509
0.633376
0.605012
0.512916
0.573737
0.573793
0.633581
0.605021
0.605107
0.389729
0.383212
0.71848
0.740739
0.389555
0.383226
0.71787
0.397389
0.484426
0.761796
0.822525
0.39723
0.484415
0.761044
0.389563
0.740785
0.383231
0.717855
0.383217
0.718465
0.389732
0.397235
0.82267
0.484413
0.761042
0.48443
0.761789
0.397391
0.401391
0.684956
0.749717
0.401401
0.68489
0.40546
0.544507
0.779163
0.903305
0.405476
0.544549
0.779233
0.749724
0.401404
0.684901
0.401396
0.684971
0.405481
0.903003
0.54455
0.779249
0.544511
0.779182
0.405464
0.501291
0.401442
0.501303
0.401485
0.728901
0.606982
1.13006
1.01661
0.728945
0.606914
1.12954
0.836231
0.739915
1.212
1.18999
0.836328
1.21119
0.739792
0.388969
0.388985
0.501305
0.401489
0.501286
0.401447
0.728952
1.01634
0.606917
1.12957
0.606991
1.13009
0.728904
0.836341
1.19114
0.739781
1.21121
1.21204
0.836231
0.739911
0.440744
0.590613
0.440669
0.590429
0.440242
0.440481
0.549648
0.89244
0.824621
1.19119
0.550217
0.893257
0.825747
0.440911
0.590609
0.590794
0.441017
0.441148
0.440977
0.550649
1.18844
0.89361
0.826543
0.89283
0.825607
0.550075
0.942636
0.568795
0.965049
0.577575
0.944414
0.568579
0.964263
0.879973
0.392126
0.530373
0.73081
0.530588
0.730898
0.878394
0.944409
0.577672
0.568571
0.96435
0.568788
0.965089
0.94264
1.08766
0.642545
1.16453
0.738447
1.08689
0.642374
1.16449
1.02425
0.592666
0.610095
0.98871
0.610244
0.989166
1.02498
1.08697
0.738459
0.64238
1.1647
0.642562
1.16464
1.0878
0.438094
0.71889
0.717912
1.06699
0.750026
0.74896
1.07073
0.393098
0.393132
0.573813
0.512974
0.573748
0.605133
0.633395
0.605051
0.513017
0.573862
0.573892
0.633675
0.605127
0.60523
0.389736
0.383215
0.718466
0.740843
0.389565
0.383238
0.717869
0.397388
0.48444
0.761801
0.822681
0.397233
0.484438
0.761119
0.389583
0.740951
0.38326
0.717905
0.383232
0.718483
0.389751
0.397244
0.822904
0.484487
0.761288
0.484472
0.761871
0.397388
0.401399
0.684998
0.74976
0.401416
0.684921
0.405464
0.54452
0.779224
0.903458
0.405484
0.544577
0.779335
0.749799
0.401444
0.685007
0.401419
0.685075
0.4055
0.903169
0.544618
0.779506
0.544547
0.779334
0.405476
0.501298
0.401444
0.501307
0.401488
0.728936
0.606997
1.13015
1.01678
0.728965
0.606916
1.12972
0.836279
0.73992
1.21211
1.19008
0.836358
1.21139
0.739801
0.388972
0.388991
0.501314
0.401493
0.501302
0.401452
0.728997
1.01652
0.606927
1.1299
0.607019
1.13027
0.728978
0.836399
1.19124
0.739802
1.21154
1.21223
0.836323
0.739924
0.441153
0.590964
0.441122
0.590755
0.441578
0.440648
0.550323
0.893181
0.826288
1.19318
0.550996
0.893995
0.82677
0.590594
0.440983
0.441288
0.591299
0.430223
0.439121
0.820302
0.89403
0.545895
0.549894
1.19027
0.893494
0.824545
0.942684
0.56879
0.965197
0.577629
0.94444
0.568594
0.964594
0.731129
0.880301
0.392172
0.53053
0.53067
0.731158
0.878979
0.944517
0.577753
0.56866
0.965091
0.568821
0.965461
0.942797
1.08819
0.642592
1.1649
0.73863
1.08715
0.642394
1.16522
1.02475
0.592751
0.610155
0.989508
0.61034
0.989566
1.02595
1.08761
0.738741
0.642427
1.16642
0.642687
1.16558
1.08903
0.435948
0.646692
0.698484
0.726649
1.04773
1.06603
0.743808
0.393226
0.39336
0.574077
0.513485
0.574056
0.60543
0.633686
0.605379