/*--------------------------------*- C++ -*----------------------------------*\
  =========                 |
  \\      /  F ield         | OpenFOAM: The Open Source CFD Toolbox
   \\    /   O peration     | Website:  https://openfoam.org
    \\  /    A nd           | Version:  10
     \\/     M anipulation  |
\*---------------------------------------------------------------------------*/
FoamFile
{
    format      ascii;
    class       volScalarField;
    location    "2000";
    object      omega;
}
// * * * * * * * * * * * * * * * * * * * * * * * * * * * * * * * * * * * * * //

dimensions      [0 0 -1 0 0 0 0];

internalField   nonuniform List<scalar> 
8636
(
1.50108
1.71403
1.157
0.569623
0.622947
0.508997
0.396122
0.374635
0.36218
0.308611
0.292723
0.283598
0.255972
0.242845
0.235118
3.85495
2.427
1.50108
1.71403
1.15699
1.02564
0.832092
0.720862
0.569627
0.622947
0.509001
0.557515
0.468633
0.419609
0.396127
0.374636
0.362185
0.420893
0.363973
0.328969
0.308615
0.292728
0.283602
0.336164
0.299318
0.273425
0.255975
0.242848
0.235122
5.08432
3.85494
2.42698
1.50107
1.71402
1.15699
1.02541
0.832092
0.720858
0.56963
0.622942
0.509003
0.557397
0.46864
0.419605
0.39613
0.374635
0.362187
0.420804
0.363977
0.32897
0.308616
0.292729
0.283603
0.336172
0.299322
0.273425
0.255976
0.242849
0.235123
5.08394
3.85491
2.42697
1.50107
1.71402
1.15698
1.02518
0.832088
0.720852
0.569629
0.622936
0.509003
0.557255
0.468639
0.419599
0.396129
0.374632
0.362187
0.420693
0.363975
0.328968
0.308615
0.292728
0.283603
0.336168
0.299324
0.273424
0.255974
0.242848
0.235122
5.08363
3.85487
2.42696
1.50107
1.71402
1.15698
1.02496
0.832081
0.720846
0.569626
0.622928
0.509001
0.557101
0.468632
0.419591
0.396125
0.374626
0.362184
0.420569
0.363968
0.328964
0.308611
0.292724
0.283599
0.33615
0.299323
0.27342
0.255971
0.242845
0.235119
5.08343
3.85483
2.42695
1.50107
1.71403
1.15697
1.02475
0.832071
0.720838
0.56962
0.622918
0.508993
0.556939
0.468619
0.41958
0.396118
0.374616
0.362176
0.420428
0.363954
0.328956
0.308604
0.292717
0.283593
0.336118
0.299317
0.273414
0.255965
0.242839
0.235113
5.08333
3.85479
2.42694
1.50106
1.71403
1.15696
1.02456
0.832056
0.720828
0.569606
0.622904
0.508979
0.55677
0.468594
0.419561
0.396102
0.374599
0.362162
0.420277
0.363931
0.328941
0.308591
0.292703
0.28358
0.336073
0.299303
0.273402
0.255954
0.242829
0.235103
5.0833
3.85475
2.42694
1.50106
1.71403
1.15695
1.02437
0.832031
0.720805
0.569577
0.622882
0.508951
0.556592
0.468552
0.419528
0.396073
0.37457
0.362136
0.420106
0.363892
0.328913
0.308566
0.29268
0.283559
0.33601
0.29928
0.27338
0.255935
0.242812
0.235087
5.08333
3.85471
2.42692
1.50104
1.71403
1.15693
1.02418
0.831983
0.720763
0.569516
0.62284
0.508901
0.556388
0.468475
0.419465
0.396017
0.374517
0.36209
0.419914
0.363826
0.328866
0.308524
0.292642
0.283524
0.335925
0.299241
0.273348
0.255905
0.242785
0.235061
5.08339
3.85467
2.42689
1.50096
1.714
1.15687
4.85411
1.02395
0.831869
0.720653
0.569378
0.622747
0.5088
0.556128
0.468335
0.419352
0.395917
0.374429
0.362016
0.419673
0.363725
0.32879
0.308457
0.292582
0.283472
0.335804
0.299179
0.273299
0.255861
0.242745
0.235026
5.0835
3.85461
2.4268
1.50071
1.71392
1.15671
4.84363
1.0236
0.831542
0.720337
0.569055
0.622521
0.508618
0.555707
0.468089
0.419154
0.395752
0.374289
0.361907
0.419425
0.363586
0.328682
0.308366
0.292504
0.283406
0.33571
0.29911
0.273236
0.255807
0.242698
0.234985
5.08356
3.85439
2.42626
1.49971
1.71353
1.15628
4.85907
1.02268
0.83064
0.719484
0.568469
0.621987
0.508345
0.555338
0.467748
0.41888
0.395538
0.374112
0.361784
0.419292
0.363471
0.32857
0.308271
0.292426
0.283343
0.33582
0.299092
0.273182
0.255758
0.242656
0.234948
5.0839
3.85277
2.42254
1.49642
1.71031
1.15542
7.1657
1.02132
0.829197
0.718115
0.568035
0.621211
0.508171
0.467514
0.418702
0.395406
0.374001
0.361717
0.363392
0.328512
0.308224
0.292387
0.283313
0.299065
0.273157
0.255735
0.242636
0.234932
1.35843
1.69809
2.52185
2.81862
2.26815
1.67189
2.04595
1.67353
1.40031
1.71411
1.32776
0.862072
0.832994
4.2809
3.54253
2.93407
2.5214
2.93427
2.52186
2.8186
2.26882
2.81863
2.26813
2.04642
1.67187
2.04593
1.67351
2.42702
1.98653
1.01952
0.9521
1.40029
0.928612
0.885295
1.5011
1.40032
0.928604
0.885313
1.32774
0.862026
0.832981
1.71411
1.32776
0.862042
0.832999
5.31652
5.31658
4.28089
3.54283
4.28088
3.54253
2.93404
2.52141
2.93425
2.52187
2.8186
2.2688
2.81864
2.26811
2.04641
1.67185
2.04592
1.6735
1.69988
3.86843
1.31114
5.08472
3.86897
1.48096
1.31113
2.81356
1.23114
1.12784
3.85528
2.8136
1.23115
1.12784
1.98757
1.01951
0.952079
2.427
1.98653
1.0195
0.952062
1.4003
0.928589
0.885278
1.5011
1.40033
0.928583
0.885298
1.32773
0.861999
0.832985
1.71411
1.32776
0.862018
0.833001
5.31654
5.31657
4.28087
3.54284
4.28086
3.54254
2.93403
2.52142
2.93425
2.52187
2.81861
2.26879
2.81865
2.2681
2.0464
1.67184
2.04591
1.67349
1.7038
1.69889
3.86836
1.48086
1.3111
5.08432
3.86889
1.48077
1.31109
2.81356
1.23114
1.12783
3.85526
2.81359
1.23114
1.12784
1.98758
1.01949
0.952047
2.42699
1.98654
1.01949
0.952034
1.4003
0.92857
0.885265
1.5011
1.40033
0.928566
0.885286
1.32773
0.861977
0.832985
1.7141
1.32775
0.861999
0.833
5.31653
5.31654
4.28086
3.54284
4.28084
3.54254
2.93403
2.52142
2.93426
2.52187
2.81863
2.26877
2.81867
2.26809
2.04639
1.67183
2.04591
1.67348
1.70283
1.698
3.86828
1.48067
1.31105
5.08399
3.86879
1.48057
1.31103
2.81355
1.23113
1.12783
3.85522
2.81358
1.23113
1.12783
1.98758
1.01948
0.952022
2.42698
1.98654
1.01948
0.952012
1.4003
0.928554
0.885254
1.50109
1.40033
0.928552
0.885276
1.32772
0.861959
0.832983
1.7141
1.32775
0.861982
0.832998
5.31648
5.31649
4.28084
3.54285
4.28083
3.54254
2.93404
2.52142
2.93428
2.52186
2.81864
2.26876
2.81869
2.26808
2.04639
1.67183
2.04591
1.67348
1.70197
1.69722
3.86818
1.48047
1.311
5.08377
3.8687
1.48037
1.31098
2.81354
1.23112
1.12783
3.85518
2.81357
1.23112
1.12783
1.98759
1.01947
0.952003
2.42697
1.98654
1.01947
0.951995
1.4003
0.928542
0.885244
1.50109
1.40033
0.92854
0.885266
1.32772
0.861944
0.83298
1.71411
1.32774
0.861968
0.832993
5.31643
5.31642
4.28083
3.54285
4.28082
3.54255
2.93406
2.52141
2.93429
2.52185
2.81866
2.26875
2.81871
2.26807
2.04639
1.67182
2.04591
1.67347
1.70122
1.69654
3.86809
1.48027
1.31094
5.08364
3.86861
1.48018
1.31091
2.81352
1.23111
1.12782
3.85514
2.81355
1.23111
1.12782
1.98759
1.01946
0.951987
2.42696
1.98654
1.01946
0.95198
1.40029
0.92853
0.885233
1.50109
1.40032
0.928528
0.885254
1.32771
0.861931
0.832975
1.71411
1.32773
0.861954
0.832986
1.35274
5.31636
5.31636
4.28082
3.54285
4.28082
3.54254
2.93407
2.5214
2.9343
2.52184
2.81868
2.26874
2.81872
2.26806
2.04638
1.67181
2.0459
1.67346
1.70056
1.69594
3.868
1.48009
1.31087
5.0836
3.86853
1.48001
1.31085
2.81351
1.2311
1.12781
3.8551
2.81353
1.23109
1.12781
1.98759
1.01945
0.951971
2.42695
1.98654
1.01944
0.951963
1.40029
0.928517
0.88522
1.50109
1.40031
0.928513
0.885238
1.3277
0.861916
0.832966
1.71411
1.32772
0.861936
0.832974
1.35235
1.35185
5.3163
5.31629
4.28082
3.54285
4.28082
3.54254
2.93409
2.52139
2.93431
2.52183
2.81869
2.26874
2.81874
2.26805
2.04639
1.6718
2.0459
1.67345
1.69999
1.6954
3.86792
1.47992
1.3108
5.08362
3.86845
1.47984
1.31077
2.81349
1.23107
1.12779
3.85506
2.81351
1.23106
1.12778
1.98758
1.01943
0.95195
2.42694
1.98653
1.01942
0.951935
1.40027
0.928497
0.885199
1.50107
1.40029
0.928483
0.885208
1.32769
0.861893
0.832948
1.71411
1.3277
0.861906
0.832949
1.35146
1.35096
5.31621
5.31621
4.28082
3.54284
4.28083
3.54252
2.9341
2.52137
2.93431
2.5218
2.81871
2.26873
2.81875
2.26802
2.04638
1.6718
2.04588
1.67343
1.69946
1.69488
3.86785
1.47976
1.31072
5.08367
3.86839
1.47967
1.31066
2.81346
1.23103
1.12775
3.85501
2.81347
1.23099
1.12772
1.98757
1.01939
0.951911
2.42691
1.9865
1.01936
0.951875
1.40024
0.928455
0.885156
1.50103
1.40024
0.928417
0.885143
1.32766
0.861851
0.832913
1.71409
1.32766
0.861842
0.832896
1.35056
4.85664
1.35002
5.31613
5.31609
4.28082
3.54282
4.28081
3.54247
2.93409
2.52134
2.93428
2.52175
2.81873
2.26871
2.81874
2.26796
2.04637
1.67179
2.04582
1.67341
1.69895
1.69436
3.86779
1.47957
1.31057
5.08373
3.86832
1.47946
1.31046
2.81342
1.23091
1.12764
3.85495
2.81339
1.2308
1.12753
1.98754
1.01929
0.951813
2.42683
1.98642
1.01918
0.951704
1.40016
0.928345
0.885052
1.5009
1.4001
0.928221
0.884965
1.32759
0.861751
0.832829
1.71403
1.32754
0.861676
0.832762
1.34957
4.84517
1.34904
5.316
5.31584
4.2808
3.54276
4.28066
3.54228
2.93405
2.52128
2.93411
2.52155
2.81871
2.26865
2.81867
2.26775
2.04632
1.67176
2.04563
1.67333
1.69847
1.69379
3.86773
1.4793
1.31025
5.08396
3.86819
1.47903
1.30989
2.81333
1.23058
1.12729
3.85477
2.81308
1.23021
1.12691
1.98742
1.01897
0.951508
2.4265
1.98607
1.01859
0.95115
1.39992
0.928
0.884751
1.50041
1.39965
0.927596
0.884425
1.3274
0.861467
0.832609
1.71378
1.3272
0.861189
0.832398
1.34861
4.84267
1.34786
5.31567
5.31424
4.28055
3.54246
4.27902
3.5407
2.9338
2.52101
2.93292
2.52033
2.81859
2.26845
2.8181
2.26689
2.04614
1.67168
2.04488
1.67311
1.69792
1.69333
3.86759
1.47853
1.30923
5.08321
3.86717
1.47771
1.30819
2.81291
1.22956
1.12624
3.85358
2.81119
1.22862
1.12524
1.98691
1.01794
0.950495
2.42405
1.9837
1.01693
0.949372
1.39907
0.926932
0.883855
1.49838
1.39807
0.92589
0.883048
1.32678
0.860688
0.83203
1.71173
1.32609
0.859991
0.831551
1.34745
5.97942
1.34947
5.31313
5.31081
4.27784
3.53987
4.27454
3.53638
2.93203
2.51924
2.93017
2.51778
2.81766
2.26746
2.81621
2.26542
2.04534
1.67148
2.04372
1.67293
3.86617
1.47688
1.30706
5.08619
3.86518
1.47656
1.30658
2.80996
1.22756
1.12405
3.8511
2.80628
1.22705
1.12343
1.98332
1.01568
0.947896
2.41798
1.97844
1.01497
0.947002
1.3966
0.924774
0.882163
1.49534
1.39581
0.924259
0.881799
1.3251
0.8591
0.83101
1.70765
1.32462
0.858603
0.830756
3.79987
9.31357
4.60275
2.0339
2.9161
1.95101
3.10144
5.33845
5.3331
5.37519
5.54024
7.60349
5.96322
11.3116
16.2608
5.17579
3.70161
5.11453
3.71092
5.44277
6.0123
2.49252
1.69449
2.52647
3.83812
2.34864
3.78089
2.35028
5.17525
3.71445
3.8331
2.35346
5.23685
5.23674
1.07711
1.15704
1.07721
0.782271
0.749696
5.23686
5.23675
1.07712
0.782203
0.749374
1.15703
1.07721
0.782259
0.749693
5.23686
5.23675
2.08493
3.75428
2.16852
3.85525
2.08608
3.75399
2.16974
1.07712
0.782191
0.74937
1.15703
1.07721
0.782249
0.74969
5.23686
5.23675
2.31358
4.03302
2.74404
5.08446
2.30976
4.03428
2.74438
2.08492
3.75429
2.16852
3.85523
2.08608
3.75399
2.16974
1.07712
0.782182
0.749366
1.15702
1.07721
0.78224
0.749685
5.23685
5.23674
2.31336
4.03276
2.74362
5.0841
2.30955
4.03402
2.74396
2.08492
3.75427
2.16851
3.8552
2.08607
3.75397
2.16973
1.07712
0.782174
0.749361
1.15701
1.07721
0.782233
0.74968
5.23684
5.23674
2.31313
4.03252
2.74322
5.08382
2.30932
4.03379
2.74358
2.08491
3.75424
2.16849
3.85516
2.08606
3.75394
2.16971
1.07711
0.782167
0.749355
1.15701
1.07721
0.782225
0.749673
5.23684
5.23673
2.31292
4.03231
2.74288
5.08364
2.3091
4.0336
2.74326
2.0849
3.75421
2.16847
3.85512
2.08605
3.7539
2.16968
1.07711
0.782159
0.749348
1.157
1.0772
0.782217
0.749663
5.23683
5.23672
2.31272
4.03215
2.74261
5.08356
2.3089
4.03345
2.74301
2.08488
3.75417
2.16844
3.85508
2.08604
3.75387
2.16965
1.0771
0.782149
0.749337
1.15699
1.07719
0.782202
0.749647
2.68895
2.68628
5.23682
5.23672
2.31255
4.03204
2.74242
5.08355
2.30873
4.03334
2.74283
2.08486
3.75414
2.16841
3.85504
2.08602
3.75383
2.16961
1.07708
0.782131
0.74932
1.15697
1.07717
0.782177
0.749618
2.68241
2.6799
5.23682
5.2367
2.31241
4.03196
2.74229
5.08359
2.30858
4.03328
2.74272
2.08482
3.7541
2.16837
3.855
2.08599
3.75379
2.16955
1.07706
0.782095
0.749286
1.15694
1.07712
0.782121
0.749561
4.86286
2.67648
2.67411
5.23681
5.2367
2.31228
4.03192
2.74223
5.08365
2.30846
4.03324
2.74267
2.08473
3.75405
2.16831
3.85495
2.08594
3.75373
2.16947
1.07699
0.782013
0.749213
1.15684
1.07702
0.781987
0.749437
4.85062
2.6711
2.66884
5.23678
5.23669
2.31215
4.03194
2.74224
5.0838
2.30837
4.03328
2.74269
2.08449
3.75397
2.16819
3.85485
2.08582
3.7536
2.16924
1.07684
0.781804
0.749045
1.15658
1.07677
0.781643
0.749156
4.84152
2.66627
2.66431
5.23672
5.23664
2.3116
4.03197
2.74226
5.08347
2.30813
4.03312
2.7426
2.08354
3.75368
2.16778
3.85442
2.08534
3.75307
2.16839
1.07647
0.781286
0.748671
1.15591
1.07625
0.780927
0.748655
2.92387
4.93901
2.9449
1.83418
2.66453
1.83473
2.66928
5.23647
5.23649
2.74214
5.08576
2.74278
2.3097
4.03102
2.30687
4.03181
2.07994
3.75173
2.16568
3.852
2.08294
3.75027
2.16518
1.07587
0.780508
0.748173
1.15523
1.0758
0.780421
0.748343
5.23691
5.13157
4.26528
5.23107
2.5214
4.42318
2.65642
4.42303
2.65395
5.23151
2.81859
5.27292
3.12386
5.27291
3.12393
5.19029
2.26883
4.03549
2.67565
4.03568
2.67581
5.19019
4.26521
5.13159
4.26514
5.13158
2.45224
2.70149
1.65608
1.67346
2.45198
1.65723
2.70183
5.23674
5.23692
4.26513
5.13159
4.26527
5.13159
2.79504
2.04643
3.59742
1.75835
3.5975
1.75751
2.79522
2.45197
1.67189
2.70186
1.65728
1.65607
2.45227
2.7015
4.28091
3.94298
3.9431
3.54284
3.75918
3.75935
5.5999
5.5818
2.86709
2.93424
5.59993
5.58199
2.8694
5.23144
4.42303
2.65392
2.52181
5.23107
4.42313
2.6564
5.59989
2.93405
5.58204
2.8694
5.58181
2.86708
5.59987
5.23107
2.52141
4.42318
2.65641
4.42303
2.65393
5.23149
5.27293
3.12393
2.8186
5.27295
3.12382
5.19012
4.03567
2.6758
2.2681
5.19028
4.03543
2.6756
2.81859
5.27297
3.12386
5.27296
3.12394
5.19027
2.26881
4.03547
2.67563
4.03567
2.67579
5.19017
4.2652
5.13161
4.26513
5.13159
2.79519
3.5975
1.7575
2.04589
2.79503
3.59737
1.7583
2.45223
2.70146
1.65607
1.67345
2.45196
1.65722
2.70179
5.23674
5.23692
4.26512
5.1316
4.26525
5.13161
2.79502
2.04642
3.59741
1.75834
3.59749
1.7575
2.79521
2.45196
1.67187
2.70183
1.65727
1.65607
2.45226
2.70147
5.31653
5.31654
3.94309
4.28084
3.94294
3.75936
3.54249
3.75915
4.28089
3.94298
3.9431
3.54283
3.75919
3.75937
5.59985
5.58181
2.86703
2.93421
5.59987
5.582
2.86934
5.23142
4.42303
2.65391
2.52182
5.23106
4.42312
2.65639
5.59984
2.93403
5.58206
2.86935
5.58182
2.86702
5.59983
5.23104
2.52142
4.42317
2.6564
4.42302
2.65392
5.23147
5.27298
3.12394
2.81861
5.27299
3.12382
5.19011
4.03566
2.67578
2.26808
5.19027
4.03541
2.67558
2.8186
5.27301
3.12387
5.273
3.12394
5.19026
2.26879
4.03545
2.67562
4.03565
2.67577
5.19016
4.26519
5.13162
4.26512
5.1316
2.79517
3.59749
1.75749
2.04588
2.79502
3.59736
1.75829
2.45221
2.70143
1.65606
1.67344
2.45195
1.65722
2.70177
5.23674
5.23692
4.26511
5.13161
4.26524
5.13161
2.79501
2.0464
3.59741
1.75833
3.59748
1.75749
2.7952
2.45195
1.67186
2.7018
1.65727
1.65606
2.45225
2.70144
5.00717
3.69158
3.69205
5.00655
1.70431
2.34777
2.34938
2.24482
3.877
2.17639
3.86896
2.24084
3.87812
2.17819
2.30986
5.08454
4.03446
2.74463
4.03315
2.74426
2.31371
2.24083
3.8684
3.87811
2.17821
3.87696
2.17638
2.2448
1.98481
3.52041
1.74023
2.81357
1.9861
3.52012
1.74044
2.08607
3.85494
3.75403
2.16978
3.75429
2.16852
2.08496
1.98609
2.81356
3.52017
1.74046
3.52042
1.74022
1.98485
5.31654
5.31654
3.9431
4.28082
3.94294
3.75938
3.5425
3.75917
4.28087
3.94298
3.9431
3.54284
3.75922
3.75939
5.5998
5.58183
2.86698
2.93421
5.59983
5.58202
2.8693
5.23139
4.42302
2.6539
2.52182
5.23103
4.4231
2.65638
5.5998
2.93403
5.58209
2.86932
5.58185
2.86699
5.59979
5.23101
2.52142
4.42315
2.65639
4.42301
2.65391
5.23144
5.27302
3.12395
2.81862
5.27302
3.12383
5.1901
4.03564
2.67577
2.26806
5.19026
4.03539
2.67557
2.81862
5.27304
3.12388
5.27303
3.12395
5.19025
2.26878
4.03544
2.67561
4.03563
2.67576
5.19016
4.26518
5.13162
4.26511
5.1316
2.79516
3.59748
1.75748
2.04587
2.79501
3.59736
1.75828
2.45221
2.70141
1.65606
1.67342
2.45195
1.65721
2.70175
5.23674
5.23692
4.2651
5.1316
4.26524
5.13161
2.795
2.0464
3.5974
1.75832
3.59748
1.75748
2.79519
2.45194
1.67185
2.70178
1.65727
1.65606
2.45225
2.70142
5.00582
3.69165
5.00635
3.69117
2.34883
1.69937
2.34721
5.00574
3.69084
3.69128
5.0053
1.7033
2.34673
2.34831
2.24474
3.8769
2.17636
3.86889
2.24077
3.87802
2.17816
2.30966
5.08413
4.03419
2.74421
4.03289
2.74383
2.3135
2.24074
3.86832
3.87799
2.17817
3.87685
2.17634
2.24471
1.9848
3.52042
1.74022
2.81357
1.98609
3.52012
1.74042
2.08607
3.85492
3.75402
2.16977
3.75428
2.16852
2.08496
1.98609
2.81356
3.52016
1.74045
3.52042
1.74021
1.98484
5.31652
5.31651
3.94309
4.2808
3.94293
3.7594
3.5425
3.75919
4.28085
3.94297
3.94309
3.54285
3.75923
3.75941
5.59977
5.58186
2.86696
2.93422
5.59979
5.58205
2.86928
5.23135
4.423
2.65389
2.52182
5.231
4.42308
2.65637
5.59977
2.93404
5.58211
2.86931
5.58188
2.86697
5.59976
5.23098
2.52142
4.42313
2.65638
4.42299
2.6539
5.2314
5.27305
3.12396
2.81864
5.27305
3.12384
5.1901
4.03562
2.67576
2.26805
5.19026
4.03538
2.67556
2.81863
5.27305
3.1239
5.27305
3.12396
5.19025
2.26876
4.03542
2.6756
4.03561
2.67575
5.19015
4.26517
5.13161
4.2651
5.13159
2.79516
3.59748
1.75747
2.04586
2.795
3.59736
1.75828
2.4522
2.70139
1.65606
1.67342
2.45194
1.65721
2.70173
5.23673
5.23691
4.26509
5.13159
4.26523
5.1316
2.795
2.04639
3.5974
1.75832
3.59748
1.75747
2.79518
2.45194
1.67184
2.70177
1.65726
1.65605
2.45224
2.70141
5.00492
3.69094
5.00529
3.6905
2.34783
1.69842
2.34624
5.00501
3.69025
3.69065
1.70239
2.34584
2.34739
2.24464
3.87678
2.17631
3.8688
2.24068
3.87789
2.17811
2.30944
5.08378
4.03395
2.7438
4.03264
2.74342
2.31328
2.24064
3.86823
3.87787
2.17811
3.87672
2.17628
2.24461
1.9848
3.52041
1.7402
2.81356
1.98609
3.52011
1.74041
2.08606
3.85489
3.75399
2.16975
3.75426
2.1685
2.08495
1.98609
2.81355
3.52015
1.74044
3.52041
1.7402
1.98484
5.31648
5.31646
3.94309
4.28079
3.94293
3.75942
3.5425
3.7592
4.28084
3.94297
3.94308
3.54285
3.75924
3.75942
5.59974
5.58188
2.86695
2.93422
5.59976
5.58207
2.86927
5.23131
4.42298
2.65388
2.52182
5.23096
4.42306
2.65636
5.59975
2.93405
5.58212
2.86931
5.58189
2.86697
5.59973
5.23093
2.52141
4.42311
2.65637
4.42296
2.6539
5.23135
5.27306
3.12397
2.81866
5.27306
3.12385
5.19009
4.03561
2.67575
2.26804
5.19025
4.03536
2.67555
2.81865
5.27306
3.1239
5.27306
3.12397
5.19025
2.26875
4.03541
2.67559
4.0356
2.67575
5.19015
4.26517
5.1316
4.26509
5.13158
2.79515
3.59748
1.75747
2.04586
2.795
3.59736
1.75827
2.4522
2.70138
1.65605
1.67341
2.45194
1.65721
2.70172
5.23673
5.2369
4.26509
5.13157
4.26523
5.13158
2.79499
2.04639
3.5974
1.75831
3.59748
1.75747
2.79518
2.45193
1.67184
2.70177
1.65726
1.65605
2.45224
2.7014
3.69038
3.68997
2.34699
1.69759
2.34544
3.68979
3.69016
1.70158
2.34513
2.34663
2.24453
3.87665
2.17625
3.86871
2.24057
3.87776
2.17804
2.30921
5.08353
4.03373
2.74344
4.03241
2.74305
2.31306
2.24053
3.86813
3.87774
2.17805
3.8766
2.17622
2.2445
1.98479
3.5204
1.74019
2.81354
1.98608
3.5201
1.7404
2.08606
3.85485
3.75396
2.16973
3.75423
2.16848
2.08494
1.98608
2.81353
3.52013
1.74043
3.52039
1.74019
1.98483
5.31642
5.3164
3.94308
4.28078
3.94292
3.75942
3.54251
3.75921
4.28083
3.94296
3.94307
3.54285
3.75925
3.75942
5.59972
5.58189
2.86695
2.93424
5.59974
5.58208
2.86928
5.23127
4.42295
2.65387
2.52181
5.23091
4.42304
2.65635
5.59972
2.93406
5.58213
2.86932
5.5819
2.86698
5.59971
5.23089
2.5214
4.42308
2.65637
4.42294
2.65389
5.23131
5.27306
3.12398
2.81867
5.27306
3.12386
5.19009
4.0356
2.67575
2.26803
5.19025
4.03535
2.67555
2.81867
5.27305
3.12391
5.27305
3.12398
5.19024
2.26875
4.0354
2.67559
4.03558
2.67574
5.19014
4.26517
5.13158
4.26509
5.13156
2.79515
3.59748
1.75746
2.04586
2.79499
3.59736
1.75827
2.4522
2.70138
1.65605
1.6734
2.45193
1.6572
2.70172
5.23672
5.2369
4.26509
5.13155
4.26523
5.13156
2.79499
2.04639
3.59741
1.75831
3.59748
1.75746
2.79518
2.45193
1.67183
2.70177
1.65726
1.65605
2.45224
2.7014
3.68996
3.68958
2.34632
1.69686
2.34481
5.0049
3.68945
3.68979
5.00477
4.55266
4.55607
3.67416
1.70088
2.34458
2.4482
2.34605
2.45031
3.67372
2.24442
3.87653
2.17619
3.86861
2.24046
3.87764
2.17798
2.309
5.08338
4.03356
2.74316
4.03223
2.74274
2.31285
2.24042
3.86804
3.87763
2.17798
3.87648
2.17616
2.24439
1.98479
3.52038
1.74018
2.81353
1.98607
3.52007
1.74039
2.08604
3.85481
3.75393
2.1697
3.75419
2.16845
2.08493
1.98607
2.81351
3.5201
1.74041
3.52036
1.74018
1.98482
5.31635
5.31634
3.94307
4.28077
3.94291
3.75942
3.5425
3.75921
4.28082
3.94296
3.94307
3.54285
3.75925
3.75942
5.5997
5.58189
2.86697
2.93425
5.59972
5.58208
2.8693
5.23122
4.42293
2.65387
2.5218
5.23087
4.42301
2.65635
5.59971
2.93408
5.58212
2.86934
5.58189
2.867
5.59969
5.23084
2.5214
4.42306
2.65636
4.42291
2.65388
5.23126
5.27305
3.12398
2.81869
5.27305
3.12387
5.19008
4.03558
2.67574
2.26802
5.19024
4.03535
2.67555
2.81869
5.27304
3.12391
5.27304
3.12398
5.19021
2.26874
4.03539
2.67559
4.03557
2.67574
5.19013
4.26517
5.13156
4.2651
5.13154
2.79516
3.59749
1.75746
2.04586
2.795
3.59737
1.75827
2.4522
2.70138
1.65605
1.67339
2.45193
1.6572
2.70173
5.23671
5.23689
4.26509
5.13153
4.26524
5.13154
2.795
2.04639
3.59741
1.7583
3.59749
1.75746
2.79519
2.45193
1.67182
2.70177
1.65725
1.65605
2.45224
2.7014
5.00494
3.68965
5.00504
3.68929
4.55097
4.54768
3.67393
2.34581
2.44921
1.69623
3.67429
2.34434
2.44713
5.00526
3.68922
3.68953
5.00519
4.54303
4.54615
3.67461
1.70027
2.34418
2.44618
2.34561
2.4482
3.67434
2.24432
3.87642
2.17612
3.86853
2.24035
3.87753
2.17791
2.30881
5.08331
4.03343
2.74294
4.03209
2.74251
2.31266
2.24032
3.86795
3.87752
2.17791
3.87637
2.17609
2.24429
1.98477
3.52035
1.74017
2.81351
1.98606
3.52005
1.74038
2.08602
3.85477
3.75389
2.16967
3.75416
2.16842
2.08491
1.98606
2.8135
3.52007
1.7404
3.52034
1.74017
1.9848
2.68302
2.6856
5.31627
5.31627
3.94306
4.28077
3.94291
3.75942
3.5425
3.7592
4.28082
3.94294
3.94306
3.54284
3.75924
3.75942
5.59968
5.58188
2.86699
2.93426
5.5997
5.58207
2.86933
5.23118
4.4229
2.65386
2.52178
5.23082
4.42298
2.65634
5.59969
2.93409
5.58211
2.86938
5.58188
2.86703
5.59968
5.2308
2.52138
4.42303
2.65635
4.42288
2.65387
5.23122
5.27303
3.12398
2.81871
5.27302
3.12386
5.19007
4.03557
2.67574
2.26801
5.19021
4.03534
2.67554
2.8187
5.27301
3.1239
5.27301
3.12398
5.1902
2.26873
4.03538
2.67558
4.03557
2.67573
5.19012
4.26518
5.13154
4.2651
5.13152
2.79516
3.59749
1.75746
2.04585
2.795
3.59737
1.75826
2.45219
2.70139
1.65604
1.67338
2.45193
1.65719
2.70173
5.23671
5.23689
4.2651
5.13151
4.26524
5.13152
2.795
2.04638
3.59742
1.7583
3.59749
1.75746
2.79519
2.45193
1.67181
2.70178
1.65724
1.65604
2.45224
2.70141
5.00545
3.68943
5.0055
3.68909
4.5416
4.53858
3.67482
2.34543
2.44727
1.69566
3.67505
2.34399
2.44525
5.00581
3.68905
3.68935
5.00578
4.53445
4.5373
3.67562
1.69972
2.34387
2.44445
2.34528
2.4464
3.67547
2.24422
3.87632
2.17605
3.86845
2.24025
3.87744
2.17784
2.30865
5.08332
4.03335
2.7428
4.032
2.74235
2.31251
2.24022
3.86788
3.87744
2.17784
3.87629
2.17602
2.2442
1.98475
3.52032
1.74016
2.81349
1.98605
3.52002
1.74036
2.086
3.85473
3.75385
2.16962
3.75412
2.16839
2.08488
1.98604
2.81347
3.52004
1.74038
3.52031
1.74015
1.98478
2.67694
2.67937
5.3162
5.31619
3.94305
4.28078
3.9429
3.75941
3.54249
3.75919
4.28083
3.94293
3.94305
3.54283
3.75922
3.7594
5.59967
5.58186
2.86703
2.93427
5.59969
5.58205
2.86936
5.23114
4.42288
2.65386
2.52176
5.23078
4.42296
2.65633
5.59967
2.93409
5.58208
2.86941
5.58186
2.86707
5.59966
5.23074
2.52136
4.42302
2.65635
4.42286
2.65387
5.23119
5.27301
3.12398
2.81872
5.273
3.12386
5.19003
4.03557
2.67573
2.268
5.1902
4.03532
2.67553
2.81872
5.27299
3.12389
5.27299
3.12397
5.19019
2.26872
4.03537
2.67556
4.03556
2.67572
5.19009
4.26518
5.13152
4.2651
5.13149
2.79516
3.5975
1.75746
2.04584
2.795
3.59738
1.75825
2.45219
2.70139
1.65603
1.67337
2.45193
1.65718
2.70174
5.23669
5.23687
4.2651
5.13148
4.26524
5.1315
2.795
2.04638
3.59742
1.75828
3.5975
1.75745
2.79519
2.45193
1.67181
2.70179
1.65722
1.65603
2.45223
2.70142
5.00611
3.68928
5.00612
3.68896
4.53327
4.53054
3.67616
2.34516
2.44559
1.69513
3.67629
2.34373
2.44364
5.00649
3.68894
3.68923
5.00648
4.52692
4.52952
3.67703
1.69921
2.34365
2.44294
2.34505
2.44485
3.67697
2.24414
3.87625
2.17598
3.86838
2.24017
3.87738
2.17776
2.30852
5.08336
4.0333
2.74272
4.03194
2.74226
2.31238
2.24014
3.86782
3.87738
2.17775
3.87623
2.17595
2.24412
1.98472
3.52029
1.74014
2.81346
1.98603
3.51998
1.74033
2.08597
3.85469
3.7538
2.16956
3.75408
2.16834
2.08482
1.98601
2.81344
3.52
1.74033
3.52027
1.74012
1.98472
4.86021
2.67144
2.67373
5.3161
5.31609
3.94304
4.28078
3.94288
3.75939
3.54246
3.75915
4.28083
3.9429
3.94303
3.5428
3.75916
3.75937
5.59966
5.58184
2.86707
2.93426
5.59967
5.58202
2.8694
5.23109
4.42286
2.65385
2.52173
5.23073
4.42294
2.65633
5.59966
2.93408
5.58203
2.86944
5.58183
2.86711
5.59965
5.23073
2.52132
4.423
2.65634
4.42285
2.65387
5.23116
5.27299
3.12395
2.81873
5.27298
3.12383
5.19
4.03556
2.67571
2.26796
5.19019
4.0353
2.6755
2.81872
5.27296
3.12383
5.27296
3.12393
5.19016
2.26869
4.03534
2.67551
4.03555
2.67569
5.19005
4.26518
5.13149
4.26511
5.13147
2.79516
3.5975
1.75744
2.04581
2.79501
3.59737
1.75822
2.45218
2.7014
1.65601
1.67336
2.45192
1.65714
2.70174
5.2367
5.23686
4.26511
5.13146
4.26523
5.13147
2.795
2.04635
3.59741
1.75823
3.5975
1.75743
2.79518
2.45191
1.67179
2.70178
1.65717
1.656
2.45221
2.70142
5.00678
3.68917
5.0068
3.68884
4.52594
4.52336
3.67772
2.34494
2.44413
1.69459
3.67781
2.34352
2.44221
5.00713
3.68883
3.68912
5.00717
4.52012
4.52248
3.67859
1.6987
2.34346
2.44159
2.34485
2.44346
3.67861
2.24407
3.87619
2.17591
3.86832
2.24009
3.87732
2.17766
2.30841
5.08342
4.03329
2.7427
4.03192
2.74222
2.31226
2.24008
3.86776
3.87734
2.17761
3.87618
2.17586
2.24406
1.98463
3.52025
1.7401
2.81341
1.98598
3.51993
1.74025
2.08589
3.85464
3.75372
2.16942
3.75402
2.16826
2.08468
1.98593
2.81339
3.51992
1.7402
3.52022
1.74005
1.98458
4.84831
2.66641
2.66857
5.31594
5.31591
3.94299
4.28072
3.94281
3.75932
3.54237
3.75906
4.28075
3.94272
3.94292
3.54268
3.75895
3.75923
5.59964
5.58178
2.86711
2.93418
5.59965
5.58194
2.86942
5.23107
4.42284
2.65385
2.52163
5.23071
4.42292
2.65632
5.59964
2.93398
5.58195
2.86944
5.58176
2.86714
5.59963
5.2307
2.5212
4.42294
2.6563
4.42282
2.65386
5.23111
5.27296
3.12389
2.8187
5.27294
3.12373
5.18996
4.03553
2.67565
2.26785
5.19014
4.03526
2.67542
2.81868
5.27292
3.12364
5.27293
3.1238
5.1901
2.26859
4.03525
2.67534
4.0355
2.67558
5.18996
4.26518
5.13146
4.2651
5.13144
2.79512
3.59748
1.7574
2.04571
2.79499
3.59734
1.75814
2.45214
2.70139
1.65597
1.67331
2.4519
1.65706
2.70174
5.23667
5.23682
4.2651
5.13143
4.26522
5.13144
2.79496
2.04627
3.59733
1.75809
3.59746
1.75735
2.79511
2.45187
1.67174
2.70177
1.65702
1.65592
2.45214
2.7014
5.00802
3.68913
5.00769
3.68889
4.51966
4.51786
3.67976
2.3448
2.44289
1.69413
3.67963
2.34344
2.44113
5.009
3.68931
3.6894
5.00957
4.5179
4.51822
3.68092
1.69821
2.34358
2.44134
2.34489
2.44264
3.68133
2.24401
3.87617
2.17579
3.86823
2.24004
3.8773
2.17745
2.30831
5.08369
4.03334
2.74275
4.032
2.74227
2.31203
2.24005
3.86769
3.87733
2.17726
3.87619
2.17569
2.244
1.98436
3.52016
1.73996
2.81326
1.98585
3.5198
1.74
2.08567
3.85454
3.75349
2.16901
3.75388
2.16807
2.08422
1.98568
2.8132
3.51967
1.73971
3.52007
1.7398
1.98407
4.84158
2.91877
2.92042
1.8354
2.66284
2.66443
1.83152
5.3154
5.31499
3.94271
4.28024
3.94231
3.75898
3.54183
3.75847
4.27986
3.94104
3.94199
3.54177
3.75713
3.75818
5.59961
5.5817
2.86709
2.93375
5.59963
5.58178
2.86933
5.23096
4.42274
2.6538
2.52117
5.23066
4.42274
2.65602
5.59958
2.93329
5.5815
2.86909
5.58151
2.86695
5.59955
5.23049
2.52049
4.42235
2.65539
4.4225
2.65352
5.23066
5.27291
3.1236
2.81851
5.27287
3.12328
5.18976
4.03542
2.67542
2.26743
5.19002
4.03505
2.67504
2.81834
5.27274
3.12247
5.27282
3.12308
5.18981
2.26814
4.03476
2.67441
4.03523
2.67502
5.18948
4.26513
5.13144
4.26508
5.13141
2.79499
3.59739
1.75725
2.04533
2.79491
3.59717
1.75787
2.45201
2.70136
1.65583
1.67317
2.45182
1.6568
2.70169
5.23659
5.23668
4.26504
5.13138
4.26511
5.13141
2.79479
2.04587
3.59694
1.75759
3.59724
1.75707
2.79484
2.45171
1.67161
2.70168
1.65659
1.65567
2.4519
2.70134
5.01264
3.68978
5.01046
3.68948
4.52299
4.54719
3.68452
2.34498
2.44305
1.69336
3.68242
2.34357
2.44291
3.69342
5.053
5.02206
3.69038
4.84034
4.64381
2.46286
2.34461
3.72642
3.69578
1.69777
2.34517
2.45015
2.24387
3.87616
2.17545
3.8679
2.23998
3.87715
2.17672
2.74237
2.30767
5.08285
4.03245
4.03166
2.7421
2.31077
2.23974
3.86719
3.87662
2.17564
3.87591
2.17488
2.2435
1.98329
3.51983
1.73942
2.81254
1.98532
3.5192
1.73895
2.08459
3.85393
3.75212
2.16717
3.75311
2.16711
2.0822
1.98441
2.8121
3.51811
1.73726
3.51917
1.73843
1.98166
5.14214
3.27441
3.01559
2.75762
1.87821
1.84481
2.69012
5.3118
5.31085
3.93994
4.27622
3.93824
3.75599
3.53813
3.75416
4.27499
3.93642
3.93704
3.53722
3.75226
3.75296
5.59933
5.58102
2.86649
2.93117
5.59945
5.58078
2.86821
5.22981
4.4218
2.65282
2.51864
5.22997
4.42134
2.6542
5.59917
2.93037
5.58052
2.86795
5.58042
2.86594
5.59906
5.22918
2.51771
4.4208
2.6536
4.42087
2.65195
5.22932
5.27262
3.12181
2.81713
5.27245
3.12082
5.18879
4.03476
2.67409
2.2659
5.18932
4.03408
2.67317
2.81658
5.27214
3.11985
5.27228
3.12021
5.18869
2.2667
4.03369
2.67252
4.03416
2.67294
5.18844
4.26493
5.13138
4.26495
5.13133
2.79451
3.59688
1.75673
2.04406
2.79456
3.59642
1.75709
2.45163
2.70124
1.6554
1.6729
2.45153
1.6562
2.70155
5.23634
5.23645
4.26483
5.13127
4.26493
5.13131
2.79427
2.04474
3.59614
1.75692
3.59643
1.75635
2.79433
2.45133
1.67142
2.70153
1.65609
1.65515
2.45154
2.7012
2.24242
3.87513
2.17362
3.86582
2.23911
3.87555
2.17393
5.08587
2.74287
2.74235
2.3061
4.03177
4.03062
2.30933
2.23835
3.86498
3.87506
2.17317
3.87422
2.17228
2.24206
1.97887
3.51753
1.73616
2.80832
1.98232
3.51585
1.73426
2.08099
3.8513
3.74917
2.16426
3.74999
2.16405
2.0788
1.9799
2.80707
3.51444
1.73267
3.51533
1.73339
1.97754
1.25171
1.7677
1.26677
1.71407
1.25273
1.76741
1.2672
1.5022
2.21242
1.62429
2.42697
1.50342
2.21211
1.62446
1.2517
1.76771
1.26673
1.71406
1.25273
1.76741
1.26717
0.896951
0.798862
0.694227
1.02548
0.896894
0.798163
0.694014
0.772169
0.644778
0.59755
0.832059
0.772139
0.644522
0.597365
1.50219
2.21242
1.62427
2.42696
1.50341
2.21211
1.62445
1.25169
1.76771
1.26671
1.71406
1.25272
1.76742
1.26715
0.896921
0.798482
0.694211
1.02524
0.89686
0.797799
0.693988
0.772173
0.644769
0.597547
0.832056
0.772142
0.644512
0.597363
1.50218
2.21242
1.62425
2.42694
1.5034
2.21211
1.62443
1.25169
1.76771
1.2667
1.71406
1.25271
1.76742
1.26713
0.896884
0.798136
0.69418
1.02502
0.89682
0.797473
0.693954
0.772174