/*--------------------------------*- C++ -*----------------------------------*\
  =========                 |
  \\      /  F ield         | OpenFOAM: The Open Source CFD Toolbox
   \\    /   O peration     | Website:  https://openfoam.org
    \\  /    A nd           | Version:  10
     \\/     M anipulation  |
\*---------------------------------------------------------------------------*/
FoamFile
{
    format      ascii;
    class       volScalarField;
    location    "2000";
    object      p;
}
// * * * * * * * * * * * * * * * * * * * * * * * * * * * * * * * * * * * * * //

dimensions      [0 2 -2 0 0 0 0];

internalField   nonuniform List<scalar> 
8636
(
0.016339
0.0239133
-0.00353623
-0.00100277
0.00773299
0.00505448
-0.00258455
-0.0025035
0.00281567
-0.00435995
-0.00303176
0.00143595
-0.00528212
-0.00306079
0.000222008
-0.0173214
-0.021195
0.0170121
0.0243468
-0.00338477
-0.0283772
-0.0176283
-0.0132876
-0.000417999
0.00812098
0.00517036
-0.021102
-0.0160361
-0.00976745
-0.00200109
-0.00219691
0.00292863
-0.0192911
-0.0148359
-0.00921048
-0.00379788
-0.00273727
0.00152926
-0.01651
-0.0133649
-0.00825376
-0.00473379
-0.00277525
0.000305806
-0.00996903
-0.0157093
-0.0200847
0.0176991
0.024789
-0.00322732
-0.0262607
-0.0160998
-0.0122362
0.000191102
0.00852472
0.00527102
-0.0193659
-0.0146573
-0.00883439
-0.00139591
-0.00186238
0.00303188
-0.0175413
-0.0134817
-0.00829515
-0.00319285
-0.00240224
0.00163369
-0.0147916
-0.0120283
-0.00735178
-0.00413737
-0.00244943
0.000406532
-0.00810959
-0.0142993
-0.0190698
0.0183563
0.0252285
-0.00307059
-0.0244603
-0.0147471
-0.0112738
0.000780565
0.0089246
0.00539156
-0.0177666
-0.0134209
-0.00799647
-0.000812625
-0.00152027
0.00315524
-0.0160463
-0.0122971
-0.00746818
-0.0026262
-0.00207998
0.00173357
-0.013378
-0.0108895
-0.00654492
-0.00358444
-0.00214246
0.000495911
-0.00652911
-0.0130882
-0.0181713
0.0189578
0.0256366
-0.00293267
-0.0229261
-0.0136033
-0.0104228
0.0013272
0.00929165
0.00547197
-0.016563
-0.0124299
-0.00721946
-0.000255246
-0.00120477
0.00324625
-0.0148608
-0.0112924
-0.00671236
-0.00208434
-0.00175458
0.00184515
-0.0121679
-0.00987998
-0.00580743
-0.00305819
-0.00181471
0.00061574
-0.00525665
-0.0120612
-0.0173941
0.0194674
0.0259901
-0.00281624
-0.0216976
-0.0126043
-0.00968191
0.00172776
0.00958624
0.00555583
-0.0154435
-0.0114267
-0.00658654
0.000139131
-0.000972743
0.00332125
-0.0137622
-0.0103523
-0.00606443
-0.00165975
-0.00152659
0.00191023
-0.0110654
-0.00896715
-0.00514643
-0.00261008
-0.00158064
0.000682072
-0.00421973
-0.0111853
-0.0167437
0.0199247
0.0262991
-0.00271473
-0.0206815
-0.0117749
-0.00907209
0.00216449
0.00988372
0.00562123
-0.0146786
-0.010762
-0.00602149
0.000572427
-0.000735528
0.00339281
-0.0128693
-0.00962416
-0.00550702
-0.00125514
-0.00129036
0.00198971
-0.0100604
-0.00818414
-0.00459073
-0.00222056
-0.00135394
0.000760312
-0.00326629
-0.0103998
-0.0161724
0.0202955
0.0265455
-0.00264052
-0.0197158
-0.0110109
-0.00851281
0.00244099
0.0100747
0.00567452
-0.0135872
-0.00995396
-0.00554494
0.000859314
-0.000584641
0.00344563
-0.0118554
-0.00890119
-0.00502915
-0.00093768
-0.00111637
0.00203991
-0.00912626
-0.00750699
-0.00411762
-0.00188791
-0.00116242
0.000815397
-0.00213189
-0.00958365
-0.0156679
0.0205876
0.0267293
-0.00259837
-0.0186336
-0.0103001
-0.00809567
0.00271122
0.0102432
0.0057124
-0.0126288
-0.00934401
-0.00506601
0.00117246
-0.000426077
0.00351142
-0.0105231
-0.00815983
-0.0045122
-0.000599136
-0.000929594
0.00212943
-0.00733173
-0.00662995
-0.00357086
-0.00154714
-0.000966391
0.000913578
-0.000510946
-0.00863958
-0.0151906
0.0208003
0.0268452
-0.0026023
-0.096757
-0.0171212
-0.00942779
-0.00765061
0.00288114
0.0103259
0.00573031
-0.0110909
-0.00852977
-0.00468676
0.00138484
-0.000266768
0.00357761
-0.0100546
-0.00769521
-0.00416873
-0.00035235
-0.00074541
0.00222321
-0.00776067
-0.00660317
-0.00336683
-0.00133719
-0.000801701
0.00100273
0.00220982
-0.00740587
-0.0147905
0.0208868
0.0269159
-0.00255361
-0.0970628
-0.0158263
-0.0085738
-0.0072519
0.00312645
0.0104385
0.00586006
-0.0148646
-0.00858669
-0.00422642
0.00178536
0.000113535
0.00376845
-0.0102159
-0.00722506
-0.00369642
6.18744e-06
-0.00044651
0.00239173
-0.00401343
-0.00555063
-0.00291481
-0.00113485
-0.000646926
0.00109474
0.0161346
-0.00543817
-0.0147867
0.0209387
0.0269434
-0.00247999
-0.00633044
0.004787
-0.00601526
-0.00660008
0.00367511
0.0108474
0.00609923
0.00956294
-0.00584919
-0.00362229
0.00194058
0.000318781
0.00380208
-0.00476582
-0.00676685
-0.00420153
-0.000548612
-0.000757264
0.00223271
-0.0198814
-0.00949834
-0.00464408
-0.00215954
-0.00123046
0.000852708
-0.0165681
-0.0131206
-0.0160595
0.021698
0.0273825
-0.0021135
-0.343067
-0.0462381
-0.0139173
-0.00749141
0.00491077
0.011214
0.00643792
-0.0106058
-0.00527589
0.0019586
2.46983e-05
0.0038562
-0.0107517
-0.00612601
-0.00112218
-0.00119436
0.00213404
-0.0100154
-0.00600876
-0.00278184
-0.00160854
0.000743673
-0.108027
-0.0676205
-0.00257918
0.0191305
0.00242022
0.0267964
-0.0170669
0.022436
-0.00390299
0.0229966
-0.0119963
0.00684858
-0.00992093
-0.025542
-0.0167672
0.0248898
-0.00166578
0.0255671
-0.0020788
0.0195713
0.00147425
0.0195508
0.00265137
-0.0177131
0.026824
-0.0168951
0.0224618
-0.021342
-0.012023
-0.0129842
-0.0013431
-0.00333767
0.00850643
-0.00479705
0.016541
-0.00337448
0.00881558
-0.00485516
-0.0115452
0.00768738
-0.00952567
0.0234206
-0.0117479
0.00722664
-0.00966376
0.00334382
0.00435918
-0.025497
-0.019019
-0.0244201
-0.0159225
0.0256193
-0.00115068
0.0263118
-0.00155844
0.0199956
0.0017031
0.019989
0.00289318
-0.017543
0.0268542
-0.0167136
0.0224965
-0.0342676
-0.0101116
-0.0179255
-0.0114017
-0.0110321
-0.0236057
-0.0165726
0.00289378
-0.01456
-0.0103017
-0.017356
0.0039179
-0.0134563
-0.00935373
-0.0189613
-0.0128549
-0.00150811
-0.0202147
-0.0111807
-0.0119074
-0.000460914
-0.00279125
0.00917809
-0.00425658
0.0172242
-0.002822
0.00949837
-0.00430764
-0.0112761
0.00808164
-0.00924927
0.0238658
-0.01148
0.00762762
-0.00938541
0.00459798
0.00552415
-0.0243967
-0.0181776
-0.0233876
-0.0151249
0.0263651
-0.000631799
0.0270253
-0.00104566
0.020431
0.00194685
0.0204274
0.00313717
-0.017359
0.0268898
-0.0165341
0.0225331
-0.0494416
-0.0322007
-0.00830013
-0.0232224
-0.0161191
-0.00949153
-0.0094221
-0.0216869
-0.0149107
0.00417541
-0.0130294
-0.00899108
-0.0159022
0.00510397
-0.0120191
-0.00811037
-0.0181252
-0.0118008
-0.000636348
-0.0191728
-0.0103817
-0.0108972
0.000391235
-0.00223525
0.00987183
-0.00370136
0.0178997
-0.00226966
0.0101805
-0.00375518
-0.0110034
0.00848912
-0.00897504
0.0243083
-0.0112104
0.00803526
-0.00910723
0.00573222
0.00655207
-0.0233907
-0.0173835
-0.0224734
-0.0143863
0.0270716
-0.000122878
0.0276882
-0.000563553
0.0208626
0.00218891
0.0208407
0.0033647
-0.0171774
0.0269267
-0.0163649
0.0225708
-0.0474557
-0.0303767
-0.00674711
-0.0214461
-0.0145734
-0.007853
-0.00803616
-0.0200213
-0.0134647
0.00533493
-0.0116779
-0.00782059
-0.0146421
0.00614954
-0.0107596
-0.0070156
-0.017334
-0.010837
0.000183729
-0.0182519
-0.0096431
-0.0099903
0.0011707
-0.00169567
0.0105391
-0.00316288
0.0185278
-0.00174744
0.0108182
-0.00323332
-0.010733
0.00889066
-0.00869583
0.0247272
-0.0109515
0.00842726
-0.00883573
0.00672096
0.00744298
-0.0225054
-0.0166735
-0.0216782
-0.0137457
0.0277196
0.00034278
0.0282701
-0.000147768
0.0212653
0.00241825
0.0211992
0.00356687
-0.0170122
0.0269625
-0.0162208
0.022604
-0.0456788
-0.0288542
-0.00541991
-0.0199231
-0.0132576
-0.00650113
-0.00688404
-0.0186511
-0.0122793
0.00634144
-0.0105253
-0.00681419
-0.0135779
0.00705504
-0.00970024
-0.00607584
-0.0166274
-0.0099845
0.000919758
-0.0174534
-0.00900156
-0.0091901
0.00186047
-0.00120655
0.0111525
-0.00267013
0.0190844
-0.00129018
0.0113858
-0.00277661
-0.0104848
0.0092601
-0.00843939
0.0250895
-0.0107225
0.00877285
-0.00859762
0.00757978
0.00821347
-0.0217363
-0.0160544
-0.0209973
-0.0131952
0.0282798
0.000745434
0.0287713
0.000210191
0.0216163
0.00261519
0.0215128
0.00373395
-0.0168715
0.026992
-0.0161019
0.0226358
-0.0442562
-0.0276609
-0.00431559
-0.0186967
-0.0121719
-0.00541693
-0.00590215
-0.0175546
-0.0112502
0.0072158
-0.0095324
-0.00593801
-0.0126619
0.00783996
-0.00876883
-0.00524578
-0.0160123
-0.00924384
0.00155059
-0.0167676
-0.00845091
-0.00850504
0.0024477
-0.000790062
0.0116596
-0.00227147
0.019555
-0.000906854
0.0118546
-0.00240161
-0.0102769
0.0095659
-0.00822585
0.0254078
-0.010531
0.00906195
-0.00840029
-0.049237
0.00831024
0.00887081
-0.0210897
-0.0155238
-0.020414
-0.0127168
0.0287702
0.00109571
0.0292145
0.000516587
0.0219208
0.00279284
0.0217751
0.00387947
-0.016744
0.0270195
-0.0159952
0.022668
-0.0431616
-0.0266995
-0.00337599
-0.0176853
-0.0112314
-0.00448363
-0.00506019
-0.0166304
-0.0104128
0.00795865
-0.00869886
-0.00520029
-0.0118718
0.00850846
-0.00799456
-0.00457431
-0.0154839
-0.00861868
0.002091
-0.0161775
-0.0079699
-0.00792439
0.00296737
-0.000420246
0.0121322
-0.0018934
0.0199797
-0.000563876
0.0122924
-0.00205371
-0.0100909
0.00985524
-0.00803186
0.0256739
-0.0103713
0.00930807
-0.0082317
-0.0504061
-0.0483808
0.00895138
0.0094982
-0.0205226
-0.0150763
-0.019879
-0.0123349
0.0291788
0.00138041
0.0295576
0.000740159
0.0221696
0.00292177
0.0219637
0.00397544
-0.0166624
0.0270364
-0.0159291
0.0226916
-0.0421813
-0.0255309
-0.00253416
-0.0167187
-0.0103704
-0.00339218
-0.00413277
-0.0155599
-0.00945389
0.00861148
-0.00793585
-0.00453011
-0.0110397
0.00915225
-0.00716402
-0.00389727
-0.0150411
-0.00806545
0.00254496
-0.015634
-0.00758509
-0.00739095
0.00341383
-0.000131226
0.012503
-0.00162001
0.0202936
-0.000319053
0.0126078
-0.00181454
-0.00995049
0.0100626
-0.00788885
0.0258605
-0.0102684
0.00946739
-0.00812143
-0.0494839
-0.0472658
0.00955359
0.0101158
-0.020021
-0.0147037
-0.0193815
-0.0120005
0.0295103
0.00158279
0.0298458
0.00087626
0.0223498
0.00301127
0.0220867
0.00403774
-0.0166063
0.0270471
-0.0158881
0.0227186
-0.0410452
-0.0236266
-0.00160884
-0.0155955
-0.0094025
-0.00181608
-0.00303446
-0.0140729
-0.00831461
0.00922913
-0.00717804
-0.00391975
-0.0101103
0.00979471
-0.00632179
-0.00324194
-0.0146766
-0.0076109
0.00288284
-0.0151214
-0.00723884
-0.00689177
0.00381313
7.41633e-05
0.0127885
-0.00141119
0.0205656
-0.000174693
0.0129221
-0.00167264
-0.00984825
0.0102382
-0.00777541
0.0259775
-0.0102182
0.00955822
-0.00807346
-0.0483861
-0.0953126
-0.0453633
0.0101436
0.0107303
-0.0195497
-0.0144082
-0.0189421
-0.0117712
0.0297732
0.00171792
0.030055
0.00096777
0.0224699
0.0030421
0.0221944
0.00409907
-0.0166025
0.0270397
-0.0158247
0.0227273
-0.0388834
-0.0220995
-0.000499688
-0.0140565
-0.00823103
0.000103269
-0.00158527
-0.0126802
-0.00699993
0.00983785
-0.00625685
-0.00328415
-0.00894895
0.0104527
-0.00537607
-0.00260676
-0.0143915
-0.00716972
0.00319237
-0.0146585
-0.00699165
-0.0065155
0.00404685
0.000205746
0.0130102
-0.00128129
0.0207706
-9.54754e-05
0.0131171
-0.00154232
-0.00978716
0.0103213
-0.00772529
0.0260956
-0.0101749
0.00972908
-0.00796048
-0.0458598
-0.0951174
-0.0442889
0.0107206
0.0112766
-0.0191413
-0.0142332
-0.0186204
-0.0116293
0.0299144
0.00176781
0.0301324
0.0010829
0.0225593
0.00304684
0.022382
0.00431917
-0.0165899
0.027006
-0.0156762
0.0227603
-0.0382846
-0.00538916
0.00116024
-0.0112805
-0.00627361
0.0118493
0.00190256
-0.00334242
-0.00359781
0.0104372
-0.00515488
-0.00264056
-0.00684806
0.0110745
-0.00387001
-0.00190395
-0.0142305
-0.00680757
0.00346489
-0.0142888
-0.0068285
-0.00614691
0.00423281
0.000206541
0.0131778
-0.00119351
0.0208446
-5.68223e-05
0.0132312
-0.00144181
-0.00977857
0.0103843
-0.00768164
0.0263349
-0.00992724
0.00997481
-0.00767444
-0.0466292
-0.0384599
-0.0319119
0.0109383
0.0104685
-0.0191272
-0.0143693
-0.0190651
-0.0111738
0.0299285
0.00191445
0.0305706
0.00164755
0.0226387
0.00304032
0.0227726
0.00482668
-0.0166401
0.0269885
-0.0152139
0.023026
-0.00831016
-0.0225783
0.00448258
0.00281171
-0.00198507
-0.00451909
-0.00352658
-0.00979797
-0.0052353
0.010653
-0.0034881
-0.00209111
-0.0105716
0.0102168
-0.00470745
-0.00209887
-0.0144576
-0.00647385
0.00371652
-0.0146233
-0.00613742
-0.00573704
0.00482056
0.000423979
0.0134394
-0.00089548
0.0211289
0.000586661
0.0138232
-0.000617085
-0.00971359
0.010646
-0.00746757
0.0268413
-0.00963059
0.0105615
-0.00718842
0.00166762
-0.12311
-0.025584
0.00912402
0.00763156
-0.020245
-0.0139537
-0.0211022
-0.0123821
0.0304127
0.00252841
0.0300062
0.00140277
0.0229678
0.00322497
0.022296
0.00502251
-0.0165544
0.0271415
-0.0150371
0.0231457
-0.00665308
-0.0367002
-0.0183305
-0.0140151
-0.0130452
-0.0324419
-0.0224376
0.00852604
-0.0105598
-0.00436323
-0.0163411
0.00717984
-0.0124913
-0.00577478
-0.0139716
-0.00657211
0.0048148
-0.0166765
-0.00730984
-0.00731151
0.00514912
0.00140536
0.0146549
0.00047085
0.0221159
0.000789417
0.0146576
-0.000577072
-0.00925101
0.0113916
-0.00696847
0.0266301
-0.00922927
0.0106272
-0.00716211
-0.44971
-0.81652
-0.542848
-0.249429
-0.172958
-0.238076
-0.34009
-0.0392663
-0.0746998
-0.0023107
0.0598871
0.341443
-0.106518
-1.44794
-0.328421
-0.107689
-0.0620059
-0.0820326
-0.0692749
-0.0779365
-0.368156
-0.105422
-0.0594146
-0.147663
-0.138779
-0.0693032
-0.103059
-0.0712758
-0.0486987
-0.0513602
-0.0565604
-0.0617821
0.0074407
0.0080822
0.014946
-0.00416424
0.013851
-0.00443768
0.0100825
0.00754972
0.00818623
0.0149906
-0.00382704
0.011707
-0.00403568
0.0138937
-0.00430663
0.0101209
0.00767996
0.00830545
-0.00158066
0.000747151
-0.0179757
-0.0181968
-0.00395027
0.00210617
-0.0199069
0.0150427
-0.00366893
0.0117637
-0.00388226
0.0139541
-0.00414533
0.010181
0.00781431
0.00843421
-0.0228187
-0.0148513
-0.0164068
-0.0105914
-0.0162302
-0.0190389
-0.0162472
-0.00011081
0.00227452
-0.0163552
-0.0166408
-0.00243474
0.00358606
-0.0183448
0.0151025
-0.00350927
0.0118198
-0.00372976
0.014014
-0.00398767
0.0102367
0.00794742
0.00856548
-0.0211514
-0.0130906
-0.0145294
-0.0088496
-0.0144874
-0.017358
-0.014472
0.0011841
0.00362658
-0.0149389
-0.0152793
-0.00109132
0.00488831
-0.0169766
0.0151636
-0.00334361
0.0118806
-0.00358037
0.0140755
-0.00382991
0.0102954
0.00806479
0.00868557
-0.0197315
-0.01159
-0.012918
-0.00734168
-0.0130024
-0.0159282
-0.0129369
0.00229083
0.0047927
-0.0137246
-0.0141207
6.59564e-05
0.00600198
-0.0158123
0.0152177
-0.00320242
0.011928
-0.00345417
0.0141263
-0.00370008
0.0103378
0.00816621
0.00878826
-0.0185785
-0.0103688
-0.0116172
-0.00613763
-0.0117917
-0.0147677
-0.0117128
0.00324407
0.00578978
-0.012695
-0.0131312
0.00105854
0.0069592
-0.0148174
0.0152632
-0.00307957
0.0119678
-0.00334204
0.0141759
-0.00358233
0.0103841
0.00825365
0.00887671
-0.0176222
-0.00936057
-0.010567
-0.00515387
-0.0107883
-0.013811
-0.0107158
0.00404688
0.00663706
-0.0118164
-0.0122948
0.00189926
0.00776814
-0.013979
0.0153007
-0.00297203
0.0119988
-0.00325087
0.0142172
-0.00348704
0.0104202
-0.0619665
-0.0547736
0.00832171
0.00894144
-0.0166593
-0.008435
-0.00960335
-0.00416277
-0.00986739
-0.0128499
-0.0097111
0.00481131
0.00739321
-0.0110335
-0.0114895
0.00264522
0.00853697
-0.0131709
0.0153247
-0.00288935
0.0120154
-0.00319043
0.0142504
-0.00342359
0.010446
-0.0609349
-0.05372
0.00835194
0.00899137
-0.0154974
-0.00735402
-0.00845759
-0.00292102
-0.00879718
-0.0116883
-0.00844438
0.00557673
0.00815463
-0.0102223
-0.0106461
0.00338876
0.00931322
-0.0123246
0.0153315
-0.0028324
0.0120222
-0.00316087
0.0142828
-0.00339503
0.0104778
-0.096915
-0.0598505
-0.0524408
0.00837853
0.00899327
-0.0139988
-0.00589936
-0.00677224
-0.00121859
-0.00734538
-0.0101755
-0.0066869
0.00647235
0.00900109
-0.00927342
-0.00963792
0.00421841
0.0102107
-0.0112978
0.0153022
-0.00283066
0.0119999
-0.00311515
0.0142649
-0.00330993
0.0104661
-0.0941316
-0.0568208
-0.049541
0.00841839
0.00901255
-0.0100443
-0.00348888
-0.00420709
0.00346422
-0.00510124
-0.00615629
-0.00188163
0.00764387
0.00998763
-0.00807234
-0.00802791
0.00513576
0.0114115
-0.00967021
0.0152465
-0.00277162
0.0119667
-0.00305698
0.0142188
-0.00320957
0.010492
-0.0866217
-0.0569526
-0.0434864
0.0085467
0.00906198
-0.00261419
0.00601207
0.0120373
0.0148762
0.00510548
0.000774888
0.0115577
0.00847708
0.0111112
-0.00599872
-0.00718379
0.00620043
0.0120836
-0.00858287
0.0153206
-0.00262353
0.0120459
-0.00278839
0.0145567
-0.00288651
0.0108724
0.0249737
0.0146539
0.0512277
0.0413839
0.0134948
0.0283595
0.0260975
0.00890215
0.00930016
-0.0244634
-0.0249519
-0.0322102
-0.0325661
-0.0186661
-0.021386
-0.0280224
0.002933
0.00606685
-0.0138968
-0.0157288
0.000983858
0.00632647
-0.0171896
0.0157602
-0.00220247
0.0123994
-0.00250593
0.0146663
-0.00268779
0.0111187
0.00713793
0.0308387
0.000585709
0.0030454
-0.00201704
-0.00500144
0.00174816
-0.00453857
0.00548843
0.00111043
0.0192879
0.0370325
-0.000530955
0.0371986
-0.00116294
-0.0394225
0.00122654
0.00190756
-0.0336557
0.0012036
-0.0340926
-0.0390451
0.000944995
0.0321876
0.00181898
0.0311387
-0.00305883
0.0230032
-0.00187762
0.0229016
-0.00126241
-0.00476883
0.021089
0.00802135
0.00723131
0.00172588
0.0308604
0.000639719
0.0321432
0.0135061
-0.0179779
-0.0239563
0.00812358
-0.0243124
0.0102299
0.0124134
-0.00145518
0.0265266
0.0207869
-0.00534094
-0.00228028
-0.00346821
0.0229345
-0.026051
-0.00513417
-0.00645897
-0.0194551
0.0167121
0.0146214
0.0143779
0.0233063
0.005435
0.0252781
0.016205
0.0232622
0.00181064
0.00157146
-0.00424434
0.00587551
-0.00208713
0.00337617
-0.00454599
0.00222647
0.0164874
0.025219
0.0235421
0.0019815
0.0236388
0.00568505
0.0145906
0.00359235
-0.00152104
-0.00449736
0.0023159
-0.00404237
0.00605217
0.00165947
0.0374556
-0.000900941
0.0196052
0.0374665
-9.24261e-05
-0.038702
0.0013956
-0.0338384
0.00280152
-0.0392089
0.00225035
-0.0332868
0.0196957
0.0374626
-0.00016117
0.0376156
-0.000814854
-0.0391462
0.00143816
0.00214288
-0.0333591
0.00141814
-0.0338034
-0.0387576
0.00100879
0.0322202
0.00188147
0.0311683
0.012764
-0.0241451
0.0105526
-0.0166436
0.0137091
-0.0236124
0.00857671
-0.00299352
0.023029
-0.00180961
0.022925
-0.001197
-0.00470194
0.0211111
0.00813033
0.00734193
0.00179603
0.0308968
0.000706644
0.0321742
0.0136183
-0.0178253
-0.0237827
0.00823207
-0.024157
0.0103296
0.0125317
-0.00138754
0.0265507
0.0208138
-0.00527021
-0.00221478
-0.00339904
0.0229578
0.00370522
0.00403498
-0.00595011
-0.0250038
-0.00459084
0.0150712
-0.0163168
0.0171839
-0.0249243
-0.0040951
-0.00543079
-0.018608
0.0176351
0.015538
0.0150477
0.0240241
0.00608372
0.0260119
0.0168732
0.0239789
0.00246391
0.0021333
-0.00372848
0.0064579
-0.00157785
0.00394074
-0.00403477
0.00281014
0.0171662
0.0259578
0.0242714
0.00264092
0.0243679
0.00634213
0.0152665
0.00416128
-0.00100733
-0.00397459
0.0029041
-0.00352661
0.00664106
0.00222744
0.0378919
-0.000538242
0.0200292
0.0379003
0.000287464
-0.0384019
0.001622
-0.0335321
0.00304688
-0.0389173
0.0024961
-0.0329717
0.0201237
0.0379132
0.000217991
0.0380541
-0.000436419
-0.0388478
0.00167969
0.00238752
-0.0330487
0.00166051
-0.0334904
-0.0384586
0.00108543
0.0322576
0.00195193
0.0312047
0.0129043
-0.0239764
0.0106668
-0.0164569
0.013834
-0.0234266
0.00870401
-0.00291438
0.0230584
-0.00173739
0.022952
-0.00112707
-0.00462178
0.0211369
0.00825731
0.00746551
0.0018741
0.0309405
0.000782652
0.0322167
0.0137513
-0.0176433
-0.0236027
0.00835694
-0.023977
0.0104529
0.0126653
-0.0013104
0.0265865
0.0208479
-0.00518809
-0.00213365
-0.00332032
0.022992
-0.0492239
-0.0460025
-0.0496409
-0.0459147
-0.0498781
-0.0457099
-0.0548846
-0.0167075
-0.00487491
-0.0119893
-0.0119929
-0.00895279
-0.00945642
-0.0148233
-0.0169583
-0.0108619
-0.0198593
-0.0170416
-0.0156966
-0.0172441
-0.0235879
-0.00776875
-0.00907558
-0.00842868
-0.0138467
-0.00376496
-0.0108925
-0.0156526
-0.0171242
-0.0226383
-0.00013004
0.00325763
-0.0198695
-0.0210489
-0.000153788
-0.00303799
-0.016411
0.00287513
-0.0190413
0.00159972
-0.0169944
-0.00080393
-0.019055
0.00361603
-0.0203694
0.000500645
-0.0218887
0.000626369
-0.0164321
0.00492956
0.00522699
-0.0049404
-0.023919
-0.00357909
0.0159807
-0.015487
0.0180924
-0.0238729
-0.00313001
-0.00444337
-0.0177792
0.0185
0.0164312
0.0157248
0.0247566
0.00674529
0.0267525
0.0175534
0.0247086
0.00312318
0.00270051
-0.00320326
0.00705026
-0.00105767
0.00451492
-0.00351304
0.00339917
0.0178357
0.0266922
0.0249718
0.00328853
0.0250865
0.00699496
0.0159291
0.0047281
-0.000487503
-0.00345677
0.00348234
-0.00300695
0.00723217
0.00279076
0.0383402
-0.000154608
0.0204721
0.0383526
0.000675126
-0.0381041
0.00186598
-0.0332169
0.00329324
-0.0386181
0.00274308
-0.0326577
0.0205608
0.038366
0.000602091
0.0385035
-5.64928e-05
-0.0385519
0.00192131
0.00263186
-0.0327379
0.0019042
-0.0331817
-0.0381642
0.00116637
0.0323023
0.00203095
0.031249
0.0130462
-0.0237941
0.0107948
-0.0162715
0.0139721
-0.0232416
0.00883289
-0.00283447
0.023093
-0.00165417
0.0229868
-0.00104763
-0.00453984
0.0211707
0.00838648
0.00759017
0.00195206
0.0309876
0.000858971
0.0322632
0.0138897
-0.0174619
-0.0234265
0.00848129
-0.0237963
0.0105791
0.0127993
-0.00123212
0.0266225
0.0208848
-0.00510778
-0.00205234
-0.00324344
0.023028
-0.0450567
-0.0487045
-0.0482821
-0.0451558
-0.0540893
-0.0337525
-0.0449399
-0.0469806
-0.0439881
-0.0474966
-0.0437943
-0.0477131
-0.0436582
-0.0527202
-0.0148789
-0.00296223
-0.0101934
-0.0102539
-0.00704003
-0.0076275
-0.0130991
-0.0150765
-0.00885553
-0.0180329
-0.0151086
-0.0137903
-0.0152089
-0.0217798
-0.00601313
-0.00739955
-0.00674056
-0.0122508
-0.00200793
-0.00923157
-0.0139645
-0.0157829
-0.0212727
0.00112159
0.00450763
-0.0184946
-0.0197163
0.00106556
-0.00161199
-0.0149046
0.00426677
-0.0175823
0.00303785
-0.0154817
0.000579924
-0.0177484
0.0048332
-0.0191148
0.00166063
-0.0205889
0.00181915
-0.0151673
0.00603257
0.00628463
-0.00399616
-0.0229339
-0.00265721
0.0168409
-0.0147116
0.0189309
-0.022932
-0.00226307
-0.00354677
-0.0170228
0.0192958
0.0172458
0.0163706
0.0254492
0.00738488
0.0274491
0.018208
0.0253936
0.00375285
0.00324776
-0.00269222
0.00762482
-0.000556152
0.00506922
-0.00300867
0.00396424
0.0184643
0.027372
0.0256239
0.00389191
0.0257531
0.0076094
0.0165465
0.00526413
5.99698e-06
-0.00297272
0.00402693
-0.00250999
0.00778621
0.00331728
0.0387824
0.000222763
0.0208969
0.0387898
0.00104591
-0.0378183
0.0021096
-0.0329117
0.00353427
-0.0383273
0.00298386
-0.0323566
0.0209829
0.0387907
0.00096519
0.0389386
0.000310926
-0.038266
0.00216093
0.00285925
-0.0324496
0.00214412
-0.0328818
-0.0378906
0.00124589
0.032349
0.00210924
0.031295
0.0131885
-0.023614
0.0109232
-0.0160908
0.0141129
-0.0230621
0.00896191
-0.00275567
0.0231296
-0.00157257
0.0230234
-0.000969191
-0.00445841
0.0212063
0.00851351
0.00771308
0.00202734
0.0310376
0.000933529
0.0323102
0.0140275
-0.0172849
-0.0232605
0.00860319
-0.0236211
0.0107053
0.0129323
-0.00115591
0.0266601
0.0209233
-0.00503029
-0.00197179
-0.00316928
0.0230652
-0.0431166
-0.0467611
-0.0462663
-0.0432885
-0.0521191
-0.0318362
-0.0430423
-0.0451251
-0.0422338
-0.0456868
-0.0458518
-0.0418613
-0.050892
-0.0133131
-0.00133514
-0.00865352
-0.00875614
-0.00541352
-0.0060623
-0.0116127
-0.0134635
-0.00715728
-0.0164676
-0.0134402
-0.0121631
-0.0134807
-0.020225
-0.00449932
-0.00595517
-0.00528703
-0.0108741
-0.000495969
-0.00779528
-0.0125084
-0.0145963
-0.020049
0.00225425
0.00562905
-0.0172644
-0.0185385
0.00216131
-0.000359677
-0.0135893
0.00547739
-0.0163165
0.00429957
-0.0141608
0.00178518
-0.0165983
0.00591301
-0.0180189
0.00268351
-0.0194447
0.00287895
-0.0140631
0.00699059
0.00720323
-0.00315351
-0.0220736
-0.00184288
0.0176085
-0.0140148
0.0196779
-0.022104
-0.0015103
-0.00275065
-0.0163531
0.0199852
0.0179755
0.0169558
0.0260875
0.00797335
0.028082
0.0188098
0.0260143
0.00432313
0.00374004
-0.00222272
0.00815022
-0.000105279
0.00557648
-0.00255341
0.0044731
0.0190242
0.0279788
0.0261966
0.0044222
0.0263489
0.00815709
0.0170914
0.00573932
0.000446636
-0.00255328
0.0045013
-0.00206686
0.00827808
0.00377563
0.0391967
0.000574114
0.0212829
0.0391888
0.00138201
-0.0375626
0.00233999
-0.0326268
0.00375369
-0.0380579
0.00320471
-0.032087
0.0213609
0.0391628
0.00128651
0.039328
0.000635212
-0.0380173
0.00237281
0.00306115
-0.0321959
0.00235701
-0.0326213
-0.0376523
0.00131542
0.0323955
0.00218035
0.0313388
0.0133144
-0.0234511
0.0110407
-0.0159314
0.0142423
-0.0229037
0.00907531
-0.00268782
0.0231663
-0.00149884
0.0230572
-0.000898436
-0.00438855
0.0212404
0.00862348
0.00781858
0.00209079
0.0310829
0.000997576
0.0323518
0.0141473
-0.0171332
-0.0231194
0.00870841
-0.0234712
0.0108127
0.0130468
-0.00109256
0.0266928
0.0209581
-0.00496405
-0.00190573
-0.00310659
0.0230987
-0.0450571
-0.0416685
-0.0503813
-0.0301227
-0.0413722
-0.0407844
-0.0441318
-0.044234
-0.0403717
-0.0493103
-0.0119842
5.68443e-05
-0.00733805
-0.00748846
-0.00402258
-0.00473463
-0.0103543
-0.012118
-0.00571681
-0.0151804
-0.0120647
-0.0108047
-0.0120116
-0.0189466
-0.00324228
-0.00474956
-0.00408617
-0.00973122
0.000764149
-0.00660289
-0.0113083
-0.0135792
-0.0189904
0.00323989
0.00660166
-0.0162029
-0.0175256
0.00311201
0.000702188
-0.0124823
0.00650577
-0.0152491
0.00537002
-0.0130529
0.00280752
-0.0156128
0.00684856
-0.0170787
0.00357256
-0.0184644
0.00379738
-0.0131187
0.00782191
0.00799779
-0.00241502
-0.0213304
-0.00114049
0.0182861
-0.0134212
0.0203203
-0.0213924
-0.000859301
-0.00206844
-0.0157801
0.0205812
0.0186004
0.0174541
0.0266382
0.00847963
0.0286212
0.0193277
0.0265442
0.00480784
0.00416049
-0.0018159
0.00860546
0.000282657
0.00601819
-0.002161
0.00490647
0.0195003
0.0284959
0.0266908
0.00487844
0.0268556
0.00861972
0.0175597
0.00613406
0.000811837
-0.00219214
0.00490756
-0.00169929
0.0086886
0.00416836
0.039559
0.00087365
0.0216158
0.0395337
0.00166631
-0.0373505
0.00254132
-0.0323887
0.00393907
-0.0378304
0.00339069
-0.0318627
0.0216811
0.0394851
0.00155389
0.0396611
0.00091585
-0.0378074
0.00255831
0.00322843
-0.0319878
0.00254356
-0.0324
-0.0374563
0.0013752
0.0324372
0.00224257
0.0313807
0.0134233
-0.0233122
0.0111425
-0.0157988
0.0143543
-0.0227706
0.00917242
-0.00263126
0.0231981
-0.00143545
0.0230903
-0.000835924
-0.00432952
0.0212745
0.00872609
0.00790919
0.00215102
0.0311214
0.0010505
0.0323916
0.0142608
-0.0169969
-0.0230031
0.00879784
-0.0233371
0.0109152
0.0131456
-0.00103148
0.0267214
0.0209905
-0.00490984
-0.00184169
-0.00305527
0.0231263
-0.0436854
-0.0403866
-0.0489848
-0.0287873
-0.0400606
-0.042344
-0.0396276
-0.0429357
-0.0392727
-0.0518561
-0.0556872
-0.0550592
-0.0429903
-0.0391949
-0.0489729
-0.0480926
-0.0537384
-0.0512029
-0.0108869
0.00120389
-0.00624489
-0.00642904
-0.00287784
-0.00363698
-0.00930206
-0.011024
-0.00457559
-0.0141261
-0.0109644
-0.00970034
-0.0108541
-0.0178977
-0.00218155
-0.00372394
-0.00306982
-0.0087526
0.00182152
-0.00557944
-0.0102878
-0.0126987
-0.0180768
0.00409771
0.00744687
-0.0152828
-0.0166497
0.00394085
0.00162758
-0.0115252
0.00739402
-0.0143297
0.00629815
-0.0120883
0.00369395
-0.0147563
0.00765917
-0.0162645
0.00434491
-0.0176148
0.00459723
-0.0122949
0.00852552
0.00867178
-0.00178848
-0.020702
-0.000535202
0.0188624
-0.0129007
0.020881
-0.0207878
-0.000299618
-0.00148507
-0.0152897
0.0210971
0.0191336
0.0178968
0.0271192
0.00892712
0.0291009
0.0197842
0.0270157
0.00523742
0.00452977
-0.00146105
0.00900406
0.000621939
0.00640189
-0.00181909
0.00528775
0.0199257
0.0289537
0.0271249
0.00527463
0.027306
0.00903571
0.0179661
0.00648935
0.00113684
-0.00188365
0.00525607
-0.00137385
0.00906061
0.00450399
0.0398756
0.00114014
0.0219097
0.0398386
0.00191429
-0.0371704
0.00271999
-0.0321797
0.00409726
-0.037634
0.00354865
-0.0316701
0.0219576
0.0397591
0.00177822
0.0399508
0.00115084
-0.0376303
0.00271271
0.00337301
-0.031824
0.0026999
-0.0322123
-0.0373026
0.00142683
0.0324748
0.00229455
0.0314176
0.0135184
-0.0231879
0.0112325
-0.0156892
0.0144528
-0.0226623
0.00925672
-0.00258206
0.0232284
-0.00138194
0.0231165
-0.00078453
-0.00427959
0.0213026
0.00880822
0.00798569
0.00219763
0.0311591
0.0010962
0.0324249
0.0143511
-0.0168917
-0.0229
0.00887582
-0.0232333
0.0109955
0.0132311
-0.000986485
0.0267444
0.0210237
-0.00485874
-0.00179444
-0.00300767
0.0231497
-0.0391261
-0.0426213
-0.0420041
-0.0393795
-0.0553822
-0.0515079
-0.0511148
-0.0479016
-0.0537647
-0.0277439
-0.0547849
-0.0390358
-0.0489836
-0.0413693
-0.0386799
-0.0419746
-0.0383213
-0.0508099
-0.0546108
-0.0541048
-0.0420229
-0.0382367
-0.0480704
-0.0471252
-0.0528241
-0.050266
-0.00995782
0.00217531
-0.00530924
-0.00553189
-0.00190275
-0.00270845
-0.0084096
-0.0101114
-0.00362609
-0.0132132
-0.0100195
-0.00877915
-0.00989676
-0.0169889
-0.00130151
-0.00286731
-0.00219043
-0.00791969
0.00270749
-0.00473348
-0.00941251
-0.0119573
-0.0173034
0.00482218
0.00816145
-0.0145097
-0.0159119
0.00464037
0.00239839
-0.0107222
0.00815934
-0.0135391
0.00707709
-0.0112861
0.00445354
-0.0140478
0.00834323
-0.0155714
0.00499732
-0.0169047
0.00526412
-0.0116018
-0.0541176
-0.0612051
0.00917669
0.0093019
-0.001239
-0.0201397
-9.83188e-06
0.0193627
-0.0124763
0.0213576
-0.020239
0.000201418
-0.000965273
-0.0148698
0.0215397
0.0196038
0.018257
0.0275191
0.00929142
0.0294897
0.0201596
0.0273974
0.00558742
0.00482045
-0.00117137
0.00932557
0.000883179
0.00671269
-0.00155504
0.00559149
0.0202543
0.0293242
0.0274602
0.00557517
0.0276681
0.00934675
0.0182762
0.00675045
0.00137228
-0.00165522
0.00551559
-0.00113554
0.00933199
0.00475263
0.0401357
0.00134586
0.0221347
0.0400737
0.0021032
-0.0370396
0.00285337
-0.0320207
0.00422003
-0.0374845
0.00367009
-0.0315296
0.0221547
0.0399614
0.00193123
0.0401615
0.00131707
-0.0375136
0.00281782
0.00347032
-0.0317133
0.00280884
-0.0320886
-0.0371994
0.00146586
0.032503
0.00232994
0.031448
0.0135956
-0.0231051
0.0112941
-0.0156013
0.0145234
-0.0225779
0.00932627
-0.00254255
0.0232489
-0.00135141
0.0231388
-0.000753592
-0.00423892
0.0213269
0.00886661
0.00803518
0.00223056
0.0311864
0.00112418
0.0324524
0.0144156
-0.016821
-0.022837
0.00892933
-0.0231625
0.011052
0.0132881
-0.000955031
0.0267637
0.0210463
-0.00482541
-0.00176059
-0.00297941
0.0231707
-0.0381237
-0.041656
-0.0410541
-0.0383729
-0.0542949
-0.0504023
-0.0501205
-0.0469338
-0.0528293
-0.0266995
-0.0538462
-0.0380047
-0.0479901
-0.0403177
-0.0375532
-0.0409069
-0.037193
-0.0496884
-0.0534646
-0.0530454