/*--------------------------------*- C++ -*----------------------------------*\
  =========                 |
  \\      /  F ield         | OpenFOAM: The Open Source CFD Toolbox
   \\    /   O peration     | Website:  https://openfoam.org
    \\  /    A nd           | Version:  10
     \\/     M anipulation  |
\*---------------------------------------------------------------------------*/
FoamFile
{
    format      ascii;
    class       surfaceScalarField;
    location    "2000";
    object      phi;
}
// * * * * * * * * * * * * * * * * * * * * * * * * * * * * * * * * * * * * * //

dimensions      [0 3 -1 0 0 0 0];

internalField   nonuniform List<scalar> 
25081
(
0.387454
6.28677
-0.994612
322.009
0.319816
0.36289
-0.0636703
-80.1382
-0.169745
-1.60458
1.74524
0.0213407
80.146
0.341176
-7.00811
-335.606
6.84288
-1.34632
335.627
0.480372
0.44057
0.227679
7.67872
-5.29323
1486.99
1.00933
1.08217
1.00397
1.01973
-7.29095
-7.56075
7.77953
7.67908
7.78021
0.80064
7.77148
-0.952803
369.268
-3.80306
1472.83
1.29197
1.35641
1.12041
0.334888
-7.73479
-7.75205
-7.78559
-8.16551
32.78
-5.80896
1558.05
33.2337
-4.74818
1564.53
1.57142
0.519794
0.496708
1.81031
-3.6479
1544.87
34.4213
-6.09884
1611.13
34.6546
-4.92043
1615.1
-3.59796
1597.76
35.8652
1654.03
35.9493
1655.92
1639.86
-1.0571
1.16254
-0.135972
63.9606
0.00742804
-71.6137
0.185043
-1.26158
1.39075
-0.314801
71.6143
-322.003
0.387401
-1.52902
6.28576
-0.995296
322.007
0.320065
0.362847
-0.0636809
-1.64997
-1.53283
-1.58948
-80.138
-0.16943
-1.60433
1.74496
0.0211894
80.1456
0.341095
-7.0072
-335.602
6.84201
-1.34734
335.625
0.480367
0.440755
0.227655
5.83992
-2.81665
340.694
1.51643
-6.32335
6.73013
-1.85326
354.426
1.56536
-6.96009
-360.562
7.09764
-1.62961
360.488
7.67773
-5.31915
1486.97
1.01125
1.08412
1.00517
1.02108
-7.28774
-7.55579
-7.29
-7.55996
7.7785
7.67831
7.77937
0.80318
-369.199
7.77051
-0.959207
369.262
-3.8664
1472.81
1.29425
1.3612
1.12152
0.335545
-7.73385
-7.7509
-7.78472
-8.16459
30.3942
-11.9659
1519.92
2.40308
2.11623
3.66099
3.24431
31.4229
-9.45199
1556.39
1.62386
1.47533
2.7302
2.65393
32.1634
-7.71162
1560.62
1.11881
0.184446
2.52339
3.20196
32.7758
-5.87523
1557.99
33.2294
-4.82858
1564.47
1.578
0.53249
0.503195
1.81666
-3.72731
1544.81
33.4085
-11.9658
1577.92
33.7214
-9.72888
1614.19
34.0379
-7.99442
1613.07
34.4173
-6.20879
1611.09
34.6507
-5.00323
1615.04
-3.69315
1597.7
35.8854
1636.88
35.7255
1662.15
35.7327
1657.89
35.8617
1654.01
35.946
1655.9
1639.84
-29.818
0.63082
-0.737882
29.8305
0.094595
-63.937
-1.05702
1.16241
-0.135883
63.9601
0.0073908
-71.6133
0.185015
-1.26141
1.39056
-0.314774
71.614
-322.002
0.387354
-1.52887
6.28522
-0.995771
322.007
0.320025
0.362549
-0.0637229
-1.64982
-1.53271
-1.58935
-80.1378
-0.169673
-1.60419
1.7448
0.021169
80.1457
0.341028
-7.00668
-335.601
6.84149
-1.34831
335.624
0.480617
0.440688
0.227642
2.6074
-340.787
5.83869
-2.81785
340.687
1.51739
-354.491
-6.3223
6.72935
-1.85648
354.423
1.56655
-6.9596
-360.557
7.09713
-1.63271
360.485
7.6772
-5.33238
1486.96
1.01235
1.08611
1.00565
1.02191
-7.28729
-7.55526
-7.28973
-7.55969
7.77807
7.67802
7.77906
0.805631
-369.194
7.76997
-0.962979
369.259
-3.87877
1472.8
1.2959
1.36306
1.12254
0.337446
-7.73342
-7.75048
-7.78443
-8.1644
30.395
-11.9847
1519.91
2.40955
2.11836
3.66111
3.25249
31.4213
-9.49462
1556.36
1.62507
1.48268
2.73746
2.65505
32.162
-7.76547
1560.59
1.1314
0.191149
2.52335
3.20864
32.7739
-5.92863
1557.98
33.2272
-4.88213
1564.45
1.58415
0.539221
0.503063
1.82338
-3.78039
1544.8
33.4091
-12.0079
1577.92
33.7201
-9.79953
1614.19
34.0363
-8.07753
1613.06
34.4153
-6.30449
1611.08
34.6486
-5.11323
1615.04
-3.80212
1597.7
35.8859
1636.87
35.7244
1662.15
35.7308
1657.87
35.86
1653.98
35.9438
1655.87
1639.82
-29.8179
0.630628
-0.737579
29.8303
0.0945505
-63.9366
-1.05711
1.16247
-0.135836
63.9597
0.00735366
-71.6131
0.184992
-1.26141
1.39053
-0.314738
71.6137
-322.001
0.387338
-1.52885
6.28513
-0.99562
322.006
0.319973
0.362534
-0.0637792
-1.6498
-1.53271
-1.58935
-80.1376
-0.169694
-1.60416
1.74476
0.021173
80.1455
0.340968
-7.00654
-335.601
6.84132
-1.34816
335.624
0.480606
0.440631
0.227631
2.60774
-340.779
5.83828
-2.8195
340.681
1.51836
-354.488
-6.32198
6.72922
-1.85845
354.421
1.56711
-6.95968
-360.555
7.09713
-1.63388
360.485
7.67714
-5.35801
1486.96
1.0128
1.08699
1.00608
1.02284
-7.28728
-7.55532
-7.28988
-7.55983
7.77789
7.67811
7.77929
0.806792
-369.193
7.76982
-0.964739
369.258
-3.90429
1472.81
1.29697
1.36443
1.12364
0.338855
-7.73334
-7.75043
-7.7845
-8.1644
30.3996
-12.0395
1519.95
2.41004
2.12058
3.66163
3.25455
31.4224
-9.54923
1556.38
1.62593
1.48377
2.73827
2.6561
32.1626
-7.81897
1560.61
1.13133
0.191525
2.52324
3.20896
32.7744
-5.98157
1557.99
33.2274
-4.93511
1564.47
1.59054
0.539406
0.509184
1.82355
-3.83289
1544.81
33.4123
-12.061
1577.93
33.7213
-9.869
1614.2
34.0369
-8.14598
1613.08
34.4155
-6.35909
1611.08
34.6486
-5.16795
1615.04
-3.85641
1597.7
35.8888
1636.87
35.7251
1662.13
35.7312
1657.87
35.8602
1654.01
35.9438
1655.9
1639.84
-29.8176
0.63055
-0.737395
29.8299
0.0945005
-63.9362
-1.05732
1.16267
-0.135816
63.9594
0.00732451
-71.6128
0.184985
-1.26154
1.39065
-0.31471
71.6134
-322
0.387343
-1.52894
6.28542
-0.995477
322.005
0.319917
0.362793
-0.0638369
-1.64988
-1.53282
-1.58945
-80.1376
-0.169733
-1.60423
1.74482
0.0212119
80.1455
0.340925
-7.00674
-335.601
6.84148
-1.34862
335.625
0.480601
0.44059
0.227626
2.60825
-340.774
5.83862
-2.82025
340.676
1.51879
-354.487
-6.32233
6.72958
-1.85909
354.42
1.56766
-6.96021
-360.555
7.09753
-1.6356
360.486
7.67749
-5.37101
1486.98
1.01327
1.08803
1.00716
1.02511
-7.28766
-7.55576
-7.2904
-7.56048
7.77826
7.67861
7.77963
0.806739
-369.194
7.77006
-0.96714
369.261
-3.91769
1472.83
1.29803
1.36643
1.12526
0.340854
-7.7336
-7.75056
-7.78487
-8.16472
30.404
-12.0544
1520
2.41021
2.12829
3.66767
3.2559
31.4254
-9.59133
1556.43
1.63262
1.48465
2.73842
2.66329
32.1651
-7.87182
1560.66
1.13129
0.198376
2.53576
3.21575
32.7767
-6.03419
1558.04
33.2295
-4.98842
1564.53
1.5904
0.54592
0.51567
1.83007
-3.88608
1544.87
33.4169
-12.1007
1577.96
33.7236
-9.91109
1614.21
34.0386
-8.2005
1613.09
34.4172
-6.45456
1611.12
34.6502
-5.27748
1615.1
-3.96526
1597.76
35.8933
1636.92
35.7274
1662.18
35.7331
1657.91
35.8615
1654.03
35.9453
1655.92
1639.86
-29.817
0.630577
-0.737361
29.8293
0.0944764
-63.936
-1.05761
1.16297
-0.135833
63.9592
0.00730015
-71.6127
0.184991
-1.26177
1.39087
-0.314743
71.6133
-322
0.387362
-1.52913
6.28606
-0.995866
322.006
0.319855
0.362808
-0.063904
-1.65005
-1.53303
-1.58965
-80.1376
-0.169533
-1.60437
1.74498
0.0212058
80.1453
0.340891
-7.00728
-335.602
6.84194
-1.34907
335.627
0.480331
0.44056
0.227896
2.60937
-340.77
5.83946
-2.82204
340.673
1.52039
-354.489
-6.32304
6.73038
-1.86218
354.423
1.56886
-6.96114
-360.558
7.09834
-1.63739
360.489
7.67816
-5.39688
1487.02
1.01419
1.08958
1.00858
1.02714
-7.28843
-7.55654
-7.29135
-7.56141
7.77904
7.67931
7.78044
0.808458
-369.198
7.77064
-0.970107
369.267
-3.98161
1472.9
1.29908
1.36726
1.12751
0.345927
-7.73418
-7.75124
-7.78561
-8.16563
30.413
-12.1068
1520.08
2.41091
2.12951
3.67461
3.26325
31.4309
-9.64506
1556.5
1.63335
1.49215
2.75205
2.67703
32.1694
-7.92508
1560.74
1.13124
0.198651
2.54824
3.2286
32.7803
-6.10122
1558.13
33.2328
-5.06838
1564.63
1.59647
0.552675
0.521778
1.84335
-3.96539
1544.93
33.4237
-12.2062
1578.06
33.7281
-10.0342
1614.3
34.0428
-8.33778
1613.19
34.4206
-6.56394
1611.21
34.6532
-5.35977
1615.16
-4.06086
1597.83
35.8996
1636.92
35.7321
1662.24
35.7364
1657.96
35.8646
1654.09
35.948
1655.99
1639.92
-29.8164
0.630668
-0.737426
29.8286
0.0944666
-63.9358
-1.05796
1.16333
-0.135862
63.959
0.00729282
-71.6127
0.185
-1.26209
1.39117
-0.314748
71.6133
-322.001
0.387386
-1.52941
6.28701
-0.996777
322.008
0.319793
0.362833
-0.0642293
-1.65033
-1.53332
-1.58993
-80.1377
-0.169872
-1.6046
1.74522
0.021207
80.1457
0.34114
-7.00811
-335.605
6.84268
-1.35012
335.631
0.48059
0.440274
0.227633
2.6106
-5.53115
-340.769
5.8173
-2.82415
340.696
1.52272
-354.493
-6.32415
6.73148
-1.86662
354.429
1.5717
-6.96232
-360.564
7.09946
-1.6422
360.498
7.67926
-5.47334
1487.12
1.01693
1.09302
1.01201
1.03187
-7.28955
-7.55777
-7.29266
-7.56296
7.78011
7.68057
7.78179
0.811409
-369.207
7.77154
-0.976154
369.28
-4.03353
1473
1.30256
1.36936
1.13338
0.355243
-7.73498
-7.75221
-7.78672
-8.16677
30.4201
-12.1893
1520.22
2.41101
2.13636
3.68098
3.27644
31.4374
-9.76752
1556.67
1.64027
1.49289
2.75846
2.69053
32.1761
-8.07101
1560.92
1.13123
0.205454
2.56692
3.24821
32.7868
-6.24687
1558.3
33.2383
-5.20158
1564.81
1.6091
0.559396
0.540733
1.8629
-4.11129
1545.1
33.4327
-12.3436
1578.21
33.7349
-10.2142
1614.44
34.049
-8.51579
1613.32
34.3705
-6.75495
1611.4
34.658
-5.57855
1615.25
-4.26517
1597.96
35.8512
1637.1
35.7384
1662.29
35.7417
1658.06
35.8121
1654.24
35.952
1656
1639.99
-29.8156
0.630803
-0.737552
29.8279
0.094467
-63.9358
-1.05834
1.16375
-0.135874
63.959
0.00727648
-71.6129
0.185263
-1.26248
1.39155
-0.314806
71.6134
-322.004
0.38692
-1.52975
6.28828
-0.998914
322.013
0.319475
0.363141
-0.063769
-1.65066
-1.53369
-1.5903
-80.1382
-0.169948
-1.6049
1.74553
0.0211342
80.1464
0.340602
-7.00926
-335.61
6.84371
-1.35411
335.64
0.480349
0.441067
0.228177
2.61338
-5.53268
-340.772
5.81892
-2.82948
340.702
1.52777
-354.504
-6.32561
6.73282
-1.87621
354.445
1.57766
-6.93909
-360.578
7.10087
-1.65453
360.493
7.68072
-5.60112
1487.32
1.02258
1.09949
1.02236
1.0424
-7.29092
-7.55936
-7.2946
-7.56497
7.78166
7.68227
7.78363
0.819156
-369.225
7.7729
-0.989743
369.304
-4.18753
1473.22
1.30783
1.37155
1.14526
0.373168
-7.73631
-7.75356
-7.78831
-8.16873
30.4352
-12.3955
1520.49
2.42459
2.14382
3.70041
3.30902
31.4482
-10.0059
1556.96
1.65347
1.51306
2.80313
2.72951
32.1857
-8.3231
1561.24
1.15004
0.218639
2.6046
3.2992
32.7954
-6.49872
1558.58
33.2462
-5.44193
1565.09
1.62162
0.572815
0.591763
1.92132
-4.33642
1545.33
33.4449
-12.6336
1578.44
33.6892
-10.5424
1614.73
34.0017
-8.85704
1613.54
34.4343
-7.09664
1611.56
34.6651
-5.89372
1615.47
-4.55059
1598.15
35.9179
1637.22
35.6313
1662.53
35.691
1658.12
35.8746
1654.28
35.9571
1656.1
1640.09
-29.8149
0.631004
-0.737779
29.8272
0.094495
-63.9359
-1.05882
1.16427
-0.135886
63.9591
0.00725939
-71.6135
0.185276
-1.26296
1.39204
-0.314956
71.6141
-322.013
0.387211
-1.53019
6.28996
-1.00434
322.027
0.319146
0.363175
-0.0633116
-1.65112
-1.53415
-1.59078
-80.1397
-0.169791
-1.60526
1.74591
0.0209148
80.1479
0.340612
-7.01074
-335.624
6.84505
-1.36051
335.658
0.480091
0.441611
0.228992
2.61963
-5.53453
-340.783
5.82097
-2.8439
340.721
1.54049
-354.506
-6.35214
6.73515
-1.90103
354.484
1.594
-6.94154
-360.61
7.10319
-1.68637
360.54
7.68295
-5.89484
1487.72
1.03725
1.11589
1.0494
1.06981
-7.29321
-7.56175
-7.2977
-7.56837
7.78394
7.68501
7.78645
0.837225
-369.263
7.7749
-1.02277
369.357
-4.41814
1473.55
1.32335
1.38111
1.17209
0.409302
-7.73828
-7.75573
-7.79073
-8.14548
30.393
-12.7815
1521.01
2.43708
2.17073
3.76089
3.38517
31.3552
-10.4766
1557.54
1.67945
1.54598
2.88499
2.8258
32.1468
-8.81462
1561.71
1.18832
0.257819
2.70554
3.40142
32.7558
-6.9755
1559.06
33.204
-5.89525
1565.58
1.6536
0.605558
0.688118
2.00565
-4.73316
1545.68
33.3497
-13.1482
1578.87
33.702
-11.0974
1615
34.0131
-9.43266
1613.85
34.3887
-7.62863
1611.84
34.6739
-6.37311
1615.66
-5.01261
1598.41
35.8769
1637.4
35.7568
1662.59
35.6989
1658.26
35.8815
1654.3
35.9067
1656.26
1640.13
-29.8144
0.631403
-0.73827
29.8267
0.0945353
-63.9365
-1.05947
1.16495
-0.13587
63.9597
0.00720739
-71.6155
0.18554
-1.26357
1.39266
-0.315375
71.6163
-322.036
0.387785
-1.53076
6.29225
-1.02153
322.066
0.319093
0.363734
-0.0623328
-1.65172
-1.53476
-1.59148
-80.1436
-0.169401
-1.60572
1.74638
0.0200447
80.1523
0.340077
-7.0128
-335.653
6.8469
-1.37956
335.704
0.479854
0.443446
0.23114
-48.9833
48.9819
1.45384
-0.117599
2.63856
-5.56276
-340.818
5.82456
-2.88935
340.807
1.57781
-354.571
-6.35609
6.73913
-1.9783
354.588
1.64426
-6.94552
-360.713
7.10738
-1.78149
360.688
7.6864
-6.5813
1488.55
1.0852
1.16308
1.1375
1.1542
-7.29711
-7.56555
-7.30308
-7.54739
7.78745
7.68948
7.76511
0.885891
-369.344
7.77804
-1.10743
369.474
-4.94302
1474.22
1.36394
1.40606
1.24344
0.489229
-7.74144
-7.78446
-7.79496
-8.14923
30.3873
-13.572
1521.88
2.49851
2.24772
3.91757
3.5804
31.435
-11.3693
1558.25
1.77471
1.64962
3.11136
3.0748
32.1123
-9.68719
1562.43
1.30243
0.380136
2.95869
3.6501
32.7738
-7.77031
1559.58
33.2726
-6.57444
1566.09
1.74987
0.696819
0.905235
2.21222
-5.31464
1546.14
33.3735
-13.994
1579.41
33.6615
-11.9452
1615.29
33.9695
-10.2347
1614.09
34.3995
-8.37697
1612.02
34.6284
-7.04235
1615.9
-5.55487
1598.57
35.8219
1637.69
35.6488
1662.58
35.6483
1658.23
35.7733
1654.26
35.9127
1656.19
1640.11
-29.814
0.632086
-0.738007
29.8261
0.0938275
-63.9385
-1.06049
1.16597
-0.135836
63.9618
0.00704287
-71.6217
0.185996
-1.26441
1.39346
-0.31725
71.6239
-322.105
0.388115
-1.53155
6.29603
-1.08704
322.195
0.318028
0.365823
-0.058191
-1.6408
-1.53571
-1.60466
-80.1542
-0.168466
-1.60635
1.74702
0.0162347
80.1657
0.339053
-7.01615
-335.726
6.8501
-1.4361
335.824
0.478646
0.449053
0.236879
-49.0336
49.0302
1.4558
-0.121809
2.69058
-5.56646
-340.936
5.8302
-3.02136
341.003
1.70739
-354.777
-6.33949
6.72219
-2.22988
354.917
1.81589
-6.95344
-360.917
7.11476
-2.07986
361.02
7.667
-8.21142
1490.12
1.24867
1.3153
1.43483
1.42785
-7.25426
-7.54559
-7.31399
-7.55474
7.79336
7.67212
7.74617
1.03662
-369.523
7.7585
-1.33966
369.735
-5.78047
1475.18
1.47514
1.47936
1.43277
0.659173
-7.74728
-7.76312
-7.80284
-8.17997
30.3023
-15.6401
1523.41
2.68853
2.52476
4.3711
4.11014
31.2851
-12.8746
1558.69
2.09375
1.99943
3.68768
3.6713
32.1294
-11.0255
1562.42
1.65706
0.737452
3.56018
4.22887
32.7365
-8.91947
1559.68
33.2317
-7.48897
1566.21
2.00679
0.942599
1.35426
2.5788
-5.95785
1546.36
33.5367
-16.4279
1581.6
33.5574
-13.058
1615.45
33.9773
-11.1215
1613.76
34.4071
-9.10826
1611.77
34.6365
-7.63901
1615.82
-6.02521
1598.56
36.2023
1640.44
35.6022
1662.61
35.6533
1657.82
35.8339
1653.92
35.9732
1655.92
1639.97
-29.8128
0.635975
-0.742228
29.8258
0.0932334
-63.9469
-1.06321
1.16809
-0.137067
63.9724
0.00666156
-71.6469
0.189214
-1.25659
1.39494
-0.331639
71.651
-322.376
0.392747
-1.53313
6.30476
-1.36544
322.702
0.316477
0.376778
-0.0403399
-1.6429
-1.53816
-1.59617
-80.1924
-0.161609
-1.60765
1.7483
-0.00541306
80.2187
0.338063
-7.02349
-335.928
6.85644
-1.59153
336.147
0.478689
0.468446
0.255061
-49.0471
-1.13869
48.9971
1.50076
-0.312104
2.95654
-5.59553
-341.282
5.81439
-3.5637
341.67
2.08632
-355.259
-6.33601
6.71534
-2.86025
355.653
2.33675
-6.94407
-361.416
7.07971
-2.80253
361.746
7.70302
-10.3988
1491.53
1.74564
1.75952
2.1148
2.01774
-7.24419
-7.50252
-7.28059
-7.53531
7.80126
7.65714
7.75333
1.44868
-369.87
7.79392
-1.83074
370.161
-6.59567
1475.96
1.73264
1.63643
1.71768
0.862155
-7.73236
-7.74203
-7.78933
-8.15745
30.5348
-18.9165
3.44955
3.24075
5.61815
4.98387
31.2481
-14.2994
1557.93
2.82527
2.75304
4.41427
4.35676
32.0148
-11.9922
1560.63
2.42892
1.50378
4.2443
4.84117
32.7333
-9.63177
1558.2
33.228
-7.95044
1565.09
2.48116
1.40962
1.80211
2.87529
-6.16884
1545.95
34.8769
-24.1126
33.6775
-13.6191
1615.97
33.9181
-11.2941
1612.82
34.3479
-9.17385
1610.89
34.6919
-7.59721
1615.12
-5.90753
1598.27
38.7129
35.8231
1664.58
35.7049
1657.24
35.8304
1653.35
35.9154
1655.5
1639.64
-29.8313
-0.729338
29.849
0.64557
0.066094
-64.006
-1.06518
1.17955
-0.154399
64.0392
0.00678234
-71.8173
0.223148
-1.26976
1.39985
-0.455918
71.92
-323.323
0.430869
-1.54059
6.30467
-2.09712
324.235
0.321292
0.428704
0.0199375
-1.66162
-1.53711
-1.5807
-80.3865
-0.112425
-1.61273
1.75354
-0.136018
80.4941
0.345338
-7.03771
-336.395
6.86649
-1.75231
336.68
0.483486
0.516726
0.293361
-48.2326
9.34405
47.0168
2.28943
-10.4176
-5.48231
3.25999
-342.408
5.76608
2.43722
-356.221
-6.33551
6.71151
-3.15309
356.561
2.95491
-6.93657
-362.19
7.06856
-3.15511
362.258
7.71186
-8.62928
2.2655
2.18048
1.601
1.554
-7.2577
-7.48014
-7.31029
-7.58558
7.80775
7.66123
7.75686
1.8202
-370.281
7.80252
-1.97076
370.341
-5.43227
1.84699
1.6533
1.37427
0.607444
-7.74322
-7.74454
-7.82245
-8.18504
31.3239
-12.044
3.05202
2.98629
3.31896
3.24293
32.0281
-10.0423
2.64989
1.7301
3.08883
3.66504
32.7127
-7.88915
33.2129
-6.45503
2.46466
1.47854
1.04447
2.0889
-4.94707
33.7125
-11.4832
33.9598
-9.54967
34.3409
-7.59841
34.579
-6.21968
-4.71437
35.6914
35.6374
35.7684
35.9138
-0.2505
-342.127
-1.74122
-1.64894
-1.84241
-1.61268
-0.0603808
2.1044
0.188706
-76.452
1.23017
-1.07938
75.4703
0.580413
1.45157
-0.0229836
72.0088
-72.0367
0.0116145
-1.41237
0.181079
90.0842
-90.0886
-0.8037
2.07859
1.60579
-0.352835
77.5479
-77.4923
0.277652
-1.5862
-0.432863
0.0650605
-1.59029
78.6362
79.5952
-0.435584
-79.5407
0.381463
1.60545
78.3464
0.242212
-78.6357
-0.0291763
-1.59015
1.60505
319.725
0.0820591
-0.0113433
0.383741
1.60481
1.68153
1.68064
-80.1463
1.74469
0.0494967
-1.27792
339.024
7.00873
0.224373
0.456977
0.430076
-1.89944
-1.76157
-1.78384
-1.73597
7.52541
355.291
-0.175077
-0.0552087
0.183457
0.503054
356.582
7.42499
-0.185035
50.3263
-50.3262
1.10489
-0.0876671
1.69687
-0.346996
74.8573
-74.8451
-1.3098
-0.0523241
0.780717
1.29018
85.6212
1.45151
-0.0855362
0.0190861
-1.41276
72.0365
-0.359737
85.6116
-85.6209
0.775275
1.29059
1.45129
-0.0227539
72.0082
-72.0363
0.0116288
-1.41208
-0.801366
2.0789
90.0884
1.60569
-0.228442
0.264895
-1.58628
77.492
0.181292
90.0837
-90.0884
-0.803525
2.07816
1.60553
-0.353042
77.5478
-77.4922
0.277839
-1.58592
0.374194
1.62733
79.5405
-0.433251
0.0656129
-1.59
78.6357
79.5949
-0.435764
-79.5404
0.381641
1.60519
78.346
0.242255
-78.6353
-0.0291565
-1.58991
-71.6145
1.39034
-0.312931
1.53294
80.4104
-80.2924
-1.51071
-0.487249
6.71203
343.547
0.0507625
0.330752
0.384413
0.504555
-1.55977
6.91891
354.611
-0.128796
1.36985
-0.662613
0.586689
-1.38785
-0.783357
319.733
0.386496
0.0264994
-0.00803172
1.6804
1.60489
1.68139
6.94446
350.294
349.233
7.23052
6.28631
-0.972231
0.384282
-0.0668593
0.316857
-1.52917
-1.58963
-1.65012
-0.750849
1.60477
319.723
0.08208
-0.0113466
0.383454
1.60449
1.68125
1.68032
6.94395
350.301
7.23013
349.216
-1.31668
339.033
0.433351
0.357193
0.460289
-1.73587
-1.78363
-1.89925
-1.76145
7.52514
355.305
0.511728
0.19271
-0.166171
-0.0461262
356.585
7.42432
-1.21939
-80.1458
1.74438
0.049419
-1.27896
339.02
7.00766
0.224316
0.457176
0.429726
-1.89913
-1.76128
-1.78353
-1.73568
7.52423
355.284
-0.174456
-0.0551847
0.184062
0.503083
-0.731087
356.575
7.42395
-1.16879
0.83214
-0.850032
29.2969
0.0173159
0.832153
-0.848758
29.2961
-29.2968
0.0172806
1.10506
50.3261
-0.0877244
1.69206
-0.316556
-1.30934
74.8449
-0.0537115
-0.185
50.3261
-50.326
1.10473
-0.087654
1.69665
-0.346992
74.8568
-74.8446
-1.3096
-0.052309
0.780532
1.28992
85.6207
1.45125
-0.0858254
0.0191106
-1.4125
72.0362
-0.359692
85.6111
-85.6204
0.775154
1.29043
1.45112
-0.0230719
72.0079
-72.0357
0.0116735
-1.41191
-0.801202
2.07853
90.0882
1.60546
-0.22841
0.264596
-1.58604
77.4922
0.181009
90.0835
-90.0879
-0.803437
2.07793
1.60538
-0.353018
77.5477
-77.4921
0.27781
-1.58576
0.37387
1.6271
79.5405
-0.433429
0.0656333
-1.58978
78.6355
79.5948
-0.435693
-79.5404
0.381573
1.60504
78.3458
0.242308
-78.6352
-0.0291318
-1.58976
1.05718
76.212
-75.2248
0.922268
-0.967049
-0.149281
60.9684
0.0355136
319.322
5.7405
-0.0930926
0.410074
0.694412
0.0589292
-1.84438
-29.8304
0.646671
-0.728504
0.0942322
1.05696
60.9444
-60.9683
-0.966337
-0.101118
0.0343683
4.96004
305.994
-1.21371
-1.01461
-1.01445
0.792769
0.511975
0.576588
0.0640792
-2.61066
5.73982
319.325
0.690694
0.0559774
0.40658
-0.0960078
-1.83939
-1.69393
-0.419229
86.0883
6.31444
338.302
0.366403
0.34316
0.122592
0.114929
344.763
6.42791
0.541197
0.409369
0.267254
0.341124
-1.66719
-63.9605
1.1804
-0.106467
0.00660829
1.26149
86.0862
-86.088
-1.69514
-0.413309
6.31389
338.303
0.119121
0.11117
0.339939
0.362626
-1.50786
6.42744
344.764
0.262856
0.336704
0.404989
0.537013
-1.65652
-1.53354
-0.193833
80.2922
6.71165
343.537
0.509669
0.389677
0.0564837
0.335384
354.591
6.91789
0.591758
-0.657059
-0.123074
1.37468
-1.37247
-71.6141
1.3901
-0.312901
1.53274
80.41
-80.2919
-1.51049
-0.487297
6.71104
343.544
0.0510928
0.330423
0.384639
0.50432
-1.56042
6.91808
354.608
-0.128484
1.36991
-0.662264
0.586439
-1.38944
-0.784111
319.731
0.386751
0.0262862
-0.00803593
1.68015
1.60466
1.68115
6.94345
350.291
349.229
7.22956
6.28554
-0.972766
0.384237
-0.0668897
0.316831
-1.52895
-1.58943
-1.6499
-0.75105
1.6046
319.721
0.0821272
-0.0113441
0.383449
1.6043
1.68108
1.68012
6.94322
350.299
7.22941
349.213
-1.31776
339.031
0.433018
0.357158
0.460502
-1.73564
-1.78338
-1.899
-1.76122
7.52418
355.3
0.511765
0.193002
-0.165845
-0.0461245
356.58
7.42346
-1.2219
-80.1457
1.7442
0.0493729
-1.27953
339.018
7.00698
0.224289
0.456867
0.429674
-1.89894
-1.7611
-1.78332
-1.7355
7.52346
355.281
-0.174421
-0.0551998
0.184054
0.503111
-0.732938
356.571
7.42324
-1.17072
0.832055
-0.849988
29.2967
0.017343
0.832169
-0.848805
29.2959
-29.2966
0.0173013
1.10494
50.3259
-0.0877157
1.69189
-0.316556
-1.30918
74.8444
-0.0536991
-0.184982
50.3259
-50.3258
1.10471
-0.0876604
1.69662
-0.346778
74.8561
-74.8441
-1.30955
-0.0522955
0.780432
1.28979
85.6202
1.45111
-0.0856285
0.0191571
-1.41236
72.0356
-0.359668
85.6107
-85.6199
0.775119
1.29039
1.45108
-0.0229049
72.0073
-72.0354
0.0117328
-1.41185
-0.801123
2.07833
90.0877
1.60533
-0.228393
0.264575
-1.58591
77.492
0.181027
90.0833
-90.0876
-0.803432
2.07786
1.60532
-0.353285
77.5475
-77.4917
0.277807
-1.5857
0.373806
1.62697
79.5404
-0.433572
0.06566
-1.58965
78.6353
79.5948
-0.435629
-79.5403
0.381519
1.60498
78.3457
0.242242
-78.6351
-0.0291059
-1.5897
1.21351
0.613549
75.2205
1.05688
76.2036
-75.2162
0.921399
-0.966883
-0.149459
60.9682
0.0355932
4.95911
305.984
0.0667775
0.579613
0.79662
0.514182
-1.01416
-1.05697
-1.01438
319.321
5.73942
-0.0930848
0.410674
0.69469
0.0589877
-1.84751
-29.8304
0.646437
-0.728119
0.0941608
1.05701
60.9443
-60.9682
-0.966304
-0.101291
0.0344331
4.95884
305.989
-1.21335
-1.01421
-1.01402
0.793304
0.511819
0.576429
0.06434
-2.61099
5.73916
319.323
0.691213
0.0562737
0.40715
-0.0957703
-1.84117
-1.6937
-0.419279
86.0877
6.31363
338.299
0.366657
0.343378
0.122312
0.114614
344.759
6.42729
0.541398
0.409724
0.266896
0.341213
-1.66813
-63.9601
1.18041
-0.106408
0.00656771
1.26146
86.0857
-86.0875
-1.6951
-0.413388
6.31346
338.3
0.119121
0.111135
0.340169
0.36262
-1.50819
6.42713
344.761
0.262802
0.336806
0.405084
0.53697
-1.6575
-1.53335
-0.193908
80.2918
6.711
343.535
0.509705
0.389904
0.0568026
0.335331
354.589
6.91732
0.591494
-0.656984
-0.122765
1.37448
-1.374
-71.6138
1.39005
-0.312861
1.53268
80.4099
-80.2915
-1.51042
-0.487371
6.71066
343.542
0.0511289
0.330374
0.384589
0.504345
-1.56098
6.91776
354.606
-0.128187
1.36999
-0.661897
0.586466
-1.38979
-0.7849
319.73
0.386755
0.0266151
-0.00802496
1.68001
1.60455
1.68102
6.94294
350.29
349.228
7.22906
6.28524
-0.972627
0.384458
-0.0669387
0.316785
-1.52887
-1.58937
-1.64982
-0.751892
1.60453
319.72
0.0822043
-0.0115903
0.383461
1.60421
1.68101
1.68003
6.94296
350.297
7.22913
349.212
-1.31833
339.029
0.433257
0.357144
0.460474
-1.73551
-1.78324
-1.89885
-1.76109
7.52367
355.299
0.51149
0.193271
-0.165535
-0.0464261
356.578
7.42294
-1.22434
-80.1456
1.74413
0.0494004
-1.28014
339.018
7.00669
0.22402
0.457115
0.429381
-1.89885
-1.76103
-1.78323
-1.73544
7.52313
355.28
-0.173816
-0.0552311
0.184594
0.503126
-0.732872
356.57
7.42292
-1.1714
0.832095
-0.850065
29.2965
0.0173676
0.832284
-0.848947
29.2958
-29.2965
0.0173173
1.10497
50.3258
-0.0877281
1.6919
-0.316853
-1.30919
74.844
-0.0536873
-0.184967
50.3258
-50.3257
1.10482
-0.0876869
1.69675
-0.347089
74.856
-74.8437
-1.30966
-0.0522803
0.780425
1.28978
85.6197
1.45109
-0.0859842
0.0192239
-1.41233
72.0353
-0.359665
85.6103
-85.6195
0.775161
1.29046
1.45114
-0.0232627
72.0074
-72.0352
0.0118123
-1.4119
-0.801128
2.0783
90.0875
1.6053
-0.228139
0.264577
-1.58587
77.4917
0.181062
90.083
-90.0874
-0.803487
2.07794
1.60536
-0.353038
77.5474
-77.4918
0.277832
-1.58575
0.373756
1.62693
79.5404
-0.43364
0.0656869
-1.58961
78.6353
79.5947
-0.435582
-79.5403
0.381485
1.60501
78.3458
0.242165
-78.6351
-0.0290765
-1.58972
1.21327
0.612833
75.2124
1.05679
76.1963
-75.2087
0.920888
-0.966888
-0.14963
60.9681
0.0356585
4.95828
305.979
0.0670298
0.579521
0.796864
0.514044
-1.01385
-1.05678
-1.0141
319.319
5.739
-0.092864
0.410958
0.69492
0.0592615
-1.8491
-29.8301
0.646326
-0.727896
0.0941111
1.0572
60.9443
-60.9681
-0.966405
-0.101454
0.0344938
4.95837
305.984
-1.21321
-1.01405
-1.01382
0.793571
0.511747
0.576324
0.0645994
-2.61147
5.73909
319.321
0.691443
0.0565474
0.407426
-0.0955425
-1.84281
-1.6937
-0.419365
86.0873
6.31345
338.297
0.36666
0.343352
0.122316
0.114593
344.757
6.42726
0.541378
0.409826
0.266865
0.341317
-1.6692
-63.9598
1.18058
-0.10638
0.00653757
1.26156
86.0853
-86.0871
-1.69526
-0.413491
6.31363
338.299
0.119143
0.111141
0.340165
0.362638
-1.50925
6.42735
344.76
0.262803
0.33692
0.405197
0.536978
-1.65856
-1.53332
-0.193987
80.2915
6.71088
343.533
0.509724
0.389855
0.0568296
0.335297
354.589
6.91723
0.59152
-0.656893
-0.122736
1.37456
-1.37553
-71.6135
1.39012
-0.312838
1.53274
80.4094
-80.2913
-1.51047
-0.487458
6.71079
343.541
0.0511495
0.33034
0.384557
0.504356
-1.56153
6.9179
354.606
-0.128154
1.37008
-0.661801
0.586493
-1.3913
-0.7852
319.729
0.387045
0.0267074
-0.00799284
1.67998
1.60453
1.681
6.94286
350.289
349.228
7.22897
6.28534
-0.972458
0.38445
-0.0669996
0.316729
-1.52891
-1.58942
-1.64985
-0.752232
1.60457
319.719
0.0823057
-0.0112764
0.383503
1.60422
1.68105
1.68004
6.94309
350.297
7.22925
349.212
-1.31838
339.029
0.432985
0.357431
0.460748
-1.7355
-1.7832
-1.89882
-1.76107
7.52354
355.299
0.511506
0.193234
-0.165517
-0.0464589
356.578
7.4228
-1.22565
-80.1455
1.74416
0.0494082
-1.28025
339.017
7.00675
0.224298
0.456874
0.429669
-1.89886
-1.76106
-1.78324
-1.73547
7.52318
355.281
-0.173796
-0.0552664
0.184557
0.503139
-0.73402
356.57
7.42296
-1.17279
0.832229
-0.850222
29.2964
0.0173833
0.832468
-0.849147
29.2957
-29.2964
0.0173245
1.10512
50.3256
-0.0877551
1.69206
-0.316659
-1.30931
74.8436
-0.0536822
-0.184961
50.3257
-50.3255
1.10503
-0.0877207
1.69701
-0.347174
74.8557
-74.8434
-1.30986
-0.0522702
0.780477
1.28987
85.6194
1.45118
-0.0858267
0.0193042
-1.4124
72.0351
-0.359683
85.61
-85.6192
0.77526
1.29061
1.45129
-0.0231214
72.0072
-72.0353
0.0118952
-1.41204
-0.8012
2.07841
90.0873
1.60537
-0.22843
0.264608
-1.58594
77.4918
0.181379
90.0828
-90.0875
-0.803602
2.07814
1.60549
-0.353082
77.5473
-77.4917
0.277879
-1.58588
0.373728
1.62698
79.5403
-0.433716
0.0657155
-1.58965
78.6354
79.5947
-0.435547
-79.5402
0.381468
1.60512
78.346
0.242009
-78.6352
-0.0290521
-1.58981
1.21325
0.612473
75.2056
1.05692
76.1908
-75.2027
0.920855
-0.967019
-0.14979
60.968
0.0357186
4.95814
305.974
0.0675331
0.579466
0.797123
0.514009
-1.01377
-1.05681
-1.01407
319.317
5.73916
-0.0923989
0.411225
0.695144
0.0597815
-1.85056
-29.8296
0.646333
-0.72781
0.094063
1.05748
60.9443
-60.9681
-0.966608
-0.101607
0.0345382
4.95858
305.98
-1.2133
-1.01412
-1.01386
0.793808
0.511498
0.576546
0.0645664
-2.6131
5.73953
319.321
0.691371
0.0570303
0.407396
-0.0953691
-1.8452
-1.6939
-0.419475
86.0869
6.31383
338.296
0.366678
0.343363
0.12234
0.114861
344.757
6.42771
0.541395
0.409937
0.266882
0.341421
-1.67023
-63.9595
1.18086
-0.10639
0.00650931
1.26177
86.085
-86.0868
-1.69557
-0.413605
6.31425
338.298
0.119171
0.111417
0.339908
0.36266
-1.51023
6.428
344.76
0.263109
0.337025
0.405578
0.536741
-1.65958
-1.53341
-0.194082
80.2913
6.71124
343.534
0.509734
0.389816
0.0568418
0.335261
354.588
6.91757
0.591836
-0.656791
-0.122698
1.37493
-1.37584
-71.6133
1.3903
-0.31286
1.5329
80.4093
-80.2911
-1.51064
-0.487582
6.71134
343.542
0.0511645
0.33059
0.384542
0.504654
-1.56268
6.91843
354.607
-0.128388
1.37018
-0.661982
0.586806
-1.39285
-0.786181
319.729
0.386835
0.0268141
-0.00794139
1.68004
1.6046
1.68108
6.94317
350.29
349.228
7.22925
6.28582
-0.972906
0.384203
-0.0670598
0.316676
-1.52904
-1.58957
-1.64998
-0.753247
1.60469
319.72
0.0826795
-0.0112153
0.383563
1.60431
1.68118
1.68015
6.94359
350.299
7.22971
349.214
-1.31911
339.029
0.433292
0.357194
0.460525
-1.73557
-1.78326
-1.89887
-1.76115
7.52378
355.299
0.512103
0.193198
-0.165499
-0.0459224
356.579
7.42303
-1.22645
-80.1453
1.7443
0.0494173
-1.28101
339.017
7.00715
0.22434
0.457189
0.429719
-1.89897
-1.76118
-1.78335
-1.73559
7.52356
355.283
-0.174058
-0.0550188
0.184233
0.503449
-0.736397
356.573
7.42336
-1.17547
0.832431
-0.850436
29.2963
0.0173913
0.83271
-0.84941
29.2957
-29.2963
0.0173361
1.10535
50.3255
-0.0877891
1.69235
-0.316744
-1.30953
74.8433
-0.0536769
-0.184975
50.3256
-50.3254
1.10532
-0.0877585
1.69738
-0.347269
74.8554
-74.8431
-1.31015
-0.0522684
0.780587
1.29005
85.6191
1.45135
-0.0861983
0.0193856
-1.41256
72.0353
-0.359697
85.6097
-85.6189
0.775394
1.29085
1.45152
-0.0234772
72.0074
-72.0352
0.01197
-1.41226
-0.801329
2.07865
90.0873
1.60551
-0.228476
0.264653
-1.5861
77.4917
0.181195
90.0829
-90.0873
-0.803763
2.07846
1.60568
-0.353142
77.5472
-77.4914
0.277691
-1.58609
0.373711
1.62711
79.5403
-0.433677
0.0657361
-1.58976
78.6355
79.5949
-0.435542
-79.5402
0.381208
1.60531
78.3464
0.241795
-78.6355
-0.0290312
-1.58997
1.21343
0.612559
75.2006
1.05719
-1.9686
76.1872
-75.1984
0.921131
-0.998494
-0.967241
-0.149934
60.9681
0.0357592
4.95862
305.971
0.0677395
0.579484
0.797344
0.514046
-1.01389
-1.05702
-1.01422
319.318
5.73977
-0.092251
0.411157
0.695303
0.0599648
-1.85269
-29.8289
0.646409
-0.727884
0.0940538
1.05781
60.9444
-60.9682
-0.966871
-0.101702
0.0345805
4.95924
305.977
-1.21354
-1.01434
-1.01405
0.794003
0.511553
0.576591
0.0650003
-2.61362
5.7404
319.322
0.691536
0.0572344
0.407594
-0.0949389
-1.84697
-1.69424
-0.419622
86.0867
6.31462
338.296
0.366714
0.343113
0.122647
0.115161
344.758
6.42855
0.540894
0.410046
0.267471
0.341531
-1.67134
-63.9593
1.1812
-0.10641
0.00649754
1.26206
86.0849
-86.0866
-1.69601
-0.41378
6.31527
338.3
0.119225