/*--------------------------------*- C++ -*----------------------------------*\
  =========                 |
  \\      /  F ield         | OpenFOAM: The Open Source CFD Toolbox
   \\    /   O peration     | Website:  https://openfoam.org
    \\  /    A nd           | Version:  10
     \\/     M anipulation  |
\*---------------------------------------------------------------------------*/
FoamFile
{
    format      ascii;
    class       volVectorField;
    location    "2000";
    object      U;
}
// * * * * * * * * * * * * * * * * * * * * * * * * * * * * * * * * * * * * * //

dimensions      [0 1 -1 0 0 0 0];

internalField   nonuniform List<vector> 
8636
(
(0.280363 -0.00988554 15.182)
(0.29634 0.00229438 14.9653)
(0.306808 -0.0208891 15.6552)
(0.337369 -0.0201587 17.1819)
(0.345112 -0.013586 16.9509)
(0.352926 -0.0167771 17.2892)
(0.361201 -0.025133 18.0048)
(0.371678 -0.0207172 18.036)
(0.372934 -0.0167122 18.0274)
(0.381445 -0.0279917 18.6245)
(0.387208 -0.022536 18.6138)
(0.388915 -0.0172074 18.5899)
(0.399242 -0.0292918 19.1306)
(0.401812 -0.0235453 19.0884)
(0.402563 -0.0175789 19.0497)
(0.2207 -0.0187308 13.3733)
(0.259458 -0.0317844 14.338)
(0.280319 -0.00988695 15.182)
(0.296295 0.00229182 14.9652)
(0.30677 -0.0208876 15.6551)
(0.249022 -0.0471321 15.8215)
(0.29383 -0.0329714 16.3956)
(0.313001 -0.0315638 16.7137)
(0.337341 -0.0201607 17.1818)
(0.345072 -0.0135893 16.9509)
(0.352889 -0.0167759 17.2892)
(0.329816 -0.0561095 17.6411)
(0.345084 -0.0426861 17.8443)
(0.353031 -0.0343762 17.9653)
(0.361177 -0.0251353 18.0047)
(0.37164 -0.0207179 18.0359)
(0.372911 -0.0167128 18.0274)
(0.369813 -0.0559742 18.5029)
(0.373711 -0.0454323 18.5837)
(0.376941 -0.0368529 18.625)
(0.381412 -0.0279935 18.6244)
(0.387177 -0.0225381 18.6137)
(0.388888 -0.0172088 18.5899)
(0.401384 -0.0532337 19.1774)
(0.39867 -0.0455603 19.1838)
(0.397794 -0.0376564 19.1678)
(0.399212 -0.0292956 19.1305)
(0.401783 -0.0235481 19.0884)
(0.402537 -0.0175802 19.0497)
(0.152362 -0.0183426 12.3385)
(0.220686 -0.0187262 13.3732)
(0.259422 -0.0317821 14.338)
(0.280297 -0.00988524 15.1819)
(0.296269 0.00229098 14.9652)
(0.306747 -0.0208859 15.6551)
(0.248957 -0.047142 15.8212)
(0.293788 -0.0329838 16.3955)
(0.312983 -0.0315653 16.7137)
(0.33733 -0.0201619 17.1818)
(0.345048 -0.01359 16.9509)
(0.35288 -0.0167752 17.2892)
(0.329856 -0.0561448 17.6412)
(0.345072 -0.0427031 17.8442)
(0.353023 -0.0343803 17.9653)
(0.361168 -0.0251372 18.0047)
(0.371626 -0.0207178 18.0359)
(0.3729 -0.0167134 18.0274)
(0.369843 -0.0559844 18.5029)
(0.373696 -0.0454466 18.5836)
(0.376929 -0.0368575 18.6249)
(0.381398 -0.0279947 18.6244)
(0.38716 -0.0225394 18.6137)
(0.388872 -0.0172098 18.5898)
(0.40142 -0.0532418 19.1773)
(0.398661 -0.0455683 19.1837)
(0.397781 -0.0376615 19.1677)
(0.399197 -0.0292976 19.1304)
(0.401767 -0.0235498 19.0883)
(0.402521 -0.0175811 19.0496)
(0.152293 -0.0183336 12.3385)
(0.220706 -0.0187244 13.3731)
(0.259419 -0.031782 14.3379)
(0.280295 -0.00988245 15.1819)
(0.296263 0.00229166 14.9652)
(0.306739 -0.0208839 15.6551)
(0.248928 -0.0471487 15.8209)
(0.293775 -0.032996 16.3954)
(0.312987 -0.0315655 16.7136)
(0.337335 -0.0201629 17.1818)
(0.345041 -0.0135889 16.9509)
(0.352883 -0.0167756 17.2892)
(0.329945 -0.0561789 17.6415)
(0.345083 -0.0427174 17.8441)
(0.353033 -0.034382 17.9653)
(0.361175 -0.0251375 18.0047)
(0.371629 -0.0207165 18.0359)
(0.372903 -0.0167126 18.0274)
(0.369901 -0.0559814 18.5029)
(0.373706 -0.0454518 18.5836)
(0.376938 -0.0368597 18.6249)
(0.381401 -0.0279943 18.6243)
(0.38716 -0.0225385 18.6137)
(0.388872 -0.0172088 18.5898)
(0.401472 -0.0532366 19.1772)
(0.398674 -0.0455697 19.1836)
(0.397789 -0.0376632 19.1677)
(0.3992 -0.0292976 19.1304)
(0.401767 -0.0235496 19.0883)
(0.40252 -0.0175809 19.0496)
(0.152255 -0.0183275 12.3383)
(0.220752 -0.0187254 13.373)
(0.259446 -0.0317829 14.3379)
(0.280311 -0.00987947 15.1819)
(0.296274 0.0022932 14.9652)
(0.306746 -0.0208822 15.6551)
(0.248935 -0.047159 15.8206)
(0.293787 -0.0330074 16.3954)
(0.313009 -0.0315648 16.7136)
(0.337355 -0.0201656 17.1817)
(0.345052 -0.0135879 16.9508)
(0.352893 -0.016776 17.2892)
(0.330014 -0.0561939 17.6416)
(0.345106 -0.0427279 17.8441)
(0.353056 -0.0343829 17.9652)
(0.361193 -0.0251374 18.0047)
(0.371643 -0.0207167 18.0359)
(0.372915 -0.0167138 18.0274)
(0.369969 -0.0559755 18.503)
(0.373729 -0.0454581 18.5835)
(0.376957 -0.0368593 18.6249)
(0.381414 -0.027992 18.6243)
(0.387171 -0.0225377 18.6137)
(0.388883 -0.0172092 18.5898)
(0.401535 -0.0532306 19.1772)
(0.398699 -0.0455706 19.1836)
(0.397807 -0.0376624 19.1677)
(0.399211 -0.0292958 19.1304)
(0.401778 -0.0235486 19.0883)
(0.402531 -0.0175811 19.0496)
(0.152246 -0.0183258 12.3381)
(0.220814 -0.0187281 13.373)
(0.25949 -0.0317868 14.3378)
(0.280342 -0.0098752 15.1818)
(0.296302 0.00229559 14.9652)
(0.306765 -0.0208801 15.6551)
(0.248973 -0.0471704 15.8204)
(0.293815 -0.0330197 16.3953)
(0.313047 -0.0315647 16.7135)
(0.337384 -0.020165 17.1817)
(0.345075 -0.0135857 16.9508)
(0.352918 -0.0167762 17.2892)
(0.330148 -0.0562118 17.6421)
(0.34515 -0.0427403 17.8441)
(0.353094 -0.0343835 17.9652)
(0.361218 -0.0251389 18.0047)
(0.371665 -0.0207161 18.0359)
(0.372936 -0.0167136 18.0274)
(0.370052 -0.0559608 18.5032)
(0.373769 -0.0454575 18.5835)
(0.376994 -0.0368599 18.6249)
(0.381441 -0.0279928 18.6244)
(0.387193 -0.0225375 18.6137)
(0.388904 -0.0172095 18.5899)
(0.401607 -0.0532156 19.1772)
(0.398739 -0.0455665 19.1836)
(0.397841 -0.0376615 19.1677)
(0.399237 -0.0292956 19.1304)
(0.4018 -0.0235488 19.0884)
(0.40255 -0.0175817 19.0497)
(0.152258 -0.0183268 12.3378)
(0.220888 -0.0187333 13.3729)
(0.259551 -0.031792 14.3378)
(0.280387 -0.00987066 15.1818)
(0.296342 0.0022987 14.9651)
(0.306795 -0.0208785 15.6551)
(0.249028 -0.0471819 15.8202)
(0.293855 -0.0330317 16.3953)
(0.31309 -0.0315635 16.7135)
(0.337428 -0.0201671 17.1817)
(0.34511 -0.0135827 16.9509)
(0.352945 -0.0167767 17.2892)
(0.330205 -0.0562222 17.6421)
(0.345189 -0.042749 17.8441)
(0.353142 -0.0343842 17.9653)
(0.361261 -0.0251383 18.0047)
(0.371699 -0.0207155 18.036)
(0.372966 -0.0167141 18.0275)
(0.370134 -0.0559688 18.5033)
(0.373822 -0.0454657 18.5836)
(0.377042 -0.0368605 18.625)
(0.38148 -0.0279913 18.6244)
(0.387227 -0.0225363 18.6138)
(0.388935 -0.0172098 18.59)
(0.401696 -0.0532202 19.1773)
(0.398797 -0.0455689 19.1837)
(0.397889 -0.0376609 19.1678)
(0.399275 -0.0292939 19.1305)
(0.401832 -0.0235478 19.0885)
(0.40258 -0.017582 19.0498)
(0.152282 -0.0183294 12.3375)
(0.22097 -0.0187384 13.3729)
(0.259627 -0.0317979 14.3378)
(0.280443 -0.00986658 15.1818)
(0.296394 0.00230237 14.9651)
(0.306836 -0.0208771 15.6551)
(0.24909 -0.047192 15.82)
(0.293904 -0.0330404 16.3953)
(0.313145 -0.0315637 16.7136)
(0.337472 -0.0201669 17.1818)
(0.345156 -0.0135793 16.9509)
(0.352985 -0.0167773 17.2893)
(0.330359 -0.0562402 17.6427)
(0.345266 -0.0427574 17.8443)
(0.353198 -0.034383 17.9653)
(0.361303 -0.0251393 18.0048)
(0.37174 -0.020716 18.0361)
(0.373002 -0.0167143 18.0276)
(0.370237 -0.0559321 18.5036)
(0.373892 -0.0454594 18.5838)
(0.377103 -0.0368587 18.6251)
(0.381531 -0.0279913 18.6246)
(0.38727 -0.0225369 18.6139)
(0.388974 -0.0172102 18.5901)
(0.401775 -0.0531751 19.1774)
(0.398863 -0.0455562 19.1839)
(0.397947 -0.0376564 19.1679)
(0.399323 -0.0292924 19.1307)
(0.401875 -0.0235474 19.0886)
(0.402619 -0.0175824 19.0499)
(0.152324 -0.0183339 12.3372)
(0.221069 -0.0187449 13.3728)
(0.259719 -0.0318047 14.3378)
(0.280512 -0.00986044 15.1818)
(0.296455 0.00230699 14.9651)
(0.306883 -0.0208766 15.6551)
(0.249163 -0.0472012 15.8199)
(0.293983 -0.0330516 16.3953)
(0.31322 -0.0315617 16.7136)
(0.337538 -0.0201736 17.1819)
(0.345209 -0.0135757 16.951)
(0.353027 -0.0167798 17.2894)
(0.330293 -0.0562671 17.6426)
(0.345326 -0.0427708 17.8444)
(0.353274 -0.0343886 17.9656)
(0.361369 -0.0251443 18.0051)
(0.371794 -0.0207205 18.0363)
(0.373049 -0.016717 18.0278)
(0.370337 -0.0560553 18.5039)
(0.373988 -0.0454867 18.5841)
(0.377183 -0.0368642 18.6254)
(0.381596 -0.0279936 18.6249)
(0.387325 -0.0225398 18.6142)
(0.389024 -0.0172121 18.5904)
(0.401964 -0.0533059 19.1778)
(0.398985 -0.0455809 19.1842)
(0.398031 -0.0376587 19.1682)
(0.399387 -0.0292912 19.131)
(0.401929 -0.0235476 19.0889)
(0.40267 -0.0175828 19.0502)
(0.152416 -0.0183406 12.3369)
(0.221201 -0.0187505 13.3728)
(0.259833 -0.0318131 14.3378)
(0.280595 -0.00985718 15.1819)
(0.296523 0.00231351 14.9652)
(0.306935 -0.020874 15.6552)
(0.163944 -0.100043 12.7364)
(0.249304 -0.0472421 15.8197)
(0.294097 -0.0330493 16.3955)
(0.313319 -0.031559 16.7138)
(0.337602 -0.0201798 17.1822)
(0.345268 -0.0135773 16.9513)
(0.353079 -0.0167834 17.2897)
(0.33103 -0.056279 17.6438)
(0.345512 -0.0427652 17.845)
(0.353367 -0.0343916 17.966)
(0.36144 -0.0251501 18.0055)
(0.371859 -0.0207272 18.0367)
(0.373103 -0.0167242 18.0281)
(0.370594 -0.055717 18.5047)
(0.374125 -0.0454264 18.5847)
(0.37728 -0.0368528 18.626)
(0.381673 -0.0279954 18.6254)
(0.387389 -0.0225442 18.6146)
(0.389084 -0.0172162 18.5908)
(0.401929 -0.0529103 19.1781)
(0.399058 -0.0454979 19.1847)
(0.398112 -0.0376352 19.1687)
(0.399458 -0.0292839 19.1314)
(0.401991 -0.0235463 19.0893)
(0.40273 -0.0175829 19.0506)
(0.152545 -0.0182962 12.3365)
(0.221397 -0.0187473 13.3727)
(0.259971 -0.0318183 14.3378)
(0.28069 -0.00985657 15.1821)
(0.296595 0.0023172 14.9653)
(0.306996 -0.0208761 15.6554)
(0.164361 -0.0998005 12.7489)
(0.249391 -0.0467897 15.8201)
(0.294264 -0.033013 16.3962)
(0.313449 -0.0315618 16.7146)
(0.337693 -0.0202087 17.183)
(0.345334 -0.0135906 16.9518)
(0.353152 -0.0168 17.2903)
(0.328949 -0.056134 17.6433)
(0.345387 -0.0427792 17.8461)
(0.353466 -0.0344142 17.9672)
(0.361537 -0.0251699 18.0065)
(0.371941 -0.0207467 18.0375)
(0.373188 -0.0167342 18.0288)
(0.370423 -0.0567931 18.5054)
(0.374191 -0.0455452 18.5858)
(0.377389 -0.0368667 18.627)
(0.381768 -0.0279968 18.6262)
(0.38747 -0.022544 18.6154)
(0.389166 -0.0172162 18.5914)
(0.402908 -0.0542765 19.1793)
(0.399339 -0.0456517 19.1856)
(0.398243 -0.0376339 19.1695)
(0.399551 -0.0292673 19.1321)
(0.402067 -0.0235329 19.0899)
(0.402807 -0.0175755 19.0511)
(0.15341 -0.0182533 12.3353)
(0.221856 -0.0187412 13.3727)
(0.260149 -0.0318338 14.3381)
(0.280793 -0.0098607 15.1828)
(0.296665 0.00231869 14.9656)
(0.307076 -0.020882 15.6559)
(0.166905 -0.0997142 12.75)
(0.250606 -0.0472686 15.8199)
(0.294656 -0.0330028 16.3982)
(0.313644 -0.031592 16.7167)
(0.337832 -0.0202456 17.185)
(0.345428 -0.0136201 16.9533)
(0.353253 -0.0168113 17.2914)
(0.334315 -0.0558 17.6504)
(0.346299 -0.0426228 17.8485)
(0.353683 -0.0343769 17.9691)
(0.361668 -0.0251772 18.0081)
(0.372032 -0.0207392 18.0388)
(0.373281 -0.0167254 18.0298)
(0.372479 -0.0542782 18.5108)
(0.374639 -0.0451875 18.5874)
(0.377551 -0.036763 18.6282)
(0.38187 -0.0279596 18.6273)
(0.387543 -0.0225125 18.6162)
(0.389238 -0.0172035 18.5921)
(0.402515 -0.0514579 19.1838)
(0.399272 -0.0451061 19.1869)
(0.398302 -0.0375051 19.1704)
(0.39962 -0.0292205 19.1328)
(0.402124 -0.0235038 19.0905)
(0.402866 -0.0175637 19.0516)
(0.15441 -0.0186376 12.3376)
(0.22207 -0.018805 13.3738)
(0.260308 -0.0318806 14.3404)
(0.280957 -0.00989864 15.186)
(0.2968 0.00227974 14.9679)
(0.307179 -0.0208953 15.6573)
(0.151658 -0.0976894 12.2781)
(0.250774 -0.0475214 15.8285)
(0.294912 -0.0331783 16.4029)
(0.313863 -0.0316427 16.7214)
(0.338034 -0.0202033 17.1892)
(0.345559 -0.0136289 16.9562)
(0.353414 -0.0168032 17.2931)
(0.345623 -0.0426676 17.8522)
(0.353811 -0.0342749 17.9723)
(0.361813 -0.0249966 18.0106)
(0.372164 -0.0206831 18.0406)
(0.373416 -0.0166908 18.031)
(0.374148 -0.0449934 18.5895)
(0.37762 -0.0365806 18.6298)
(0.381952 -0.027805 18.6286)
(0.387628 -0.0224362 18.6172)
(0.389324 -0.0171743 18.5928)
(0.399141 -0.0450382 19.188)
(0.398343 -0.0373756 19.1714)
(0.399667 -0.0291215 19.1336)
(0.402179 -0.0234546 19.0911)
(0.402921 -0.0175487 19.0521)
(0.225208 -0.0736077 15.2675)
(0.200437 -0.0579171 14.4625)
(0.266446 -0.00803299 14.1644)
(0.270712 0.0122929 13.9971)
(0.287041 -0.0205843 14.4424)
(0.305451 -0.00351855 14.8431)
(0.282564 -0.0284797 14.5735)
(0.30527 -0.00350359 14.8415)
(0.295832 -0.0101679 15.3553)
(0.296314 0.00233514 14.9652)
(0.318529 -0.0222497 15.516)
(0.332052 -0.010717 16.3252)
(0.337295 -0.0203726 16.3848)
(0.238075 -0.0331338 13.2611)
(0.239066 -0.0221492 13.5307)
(0.241779 -0.00801481 13.8687)
(0.266493 -0.00803127 14.1646)
(0.241836 -0.00805579 13.8686)
(0.266393 -0.00803693 14.1643)
(0.270728 0.0122818 13.9971)
(0.287021 -0.0205987 14.442)
(0.270661 0.0122931 13.997)
(0.286994 -0.0205827 14.4424)
(0.282494 -0.028496 14.5732)
(0.305397 -0.00352165 14.8431)
(0.282519 -0.0284713 14.5735)
(0.305226 -0.00350708 14.8415)
(0.259425 -0.031768 14.338)
(0.265343 -0.0244372 14.6204)
(0.292712 -0.029496 15.9923)
(0.298229 -0.0237123 16.0957)
(0.295804 -0.010175 15.3553)
(0.306611 -0.0134186 16.1661)
(0.318416 -0.0151924 16.26)
(0.280344 -0.00988894 15.1819)
(0.295778 -0.0101682 15.3552)
(0.3066 -0.013419 16.1661)
(0.318394 -0.0151975 16.2599)
(0.318499 -0.02225 15.516)
(0.332025 -0.0107443 16.3253)
(0.337271 -0.0203513 16.3848)
(0.296264 0.00233216 14.9651)
(0.318481 -0.0222454 15.5159)
(0.332004 -0.01072 16.3252)
(0.33725 -0.0203731 16.3847)
(0.24033 -0.0190445 13.0754)
(0.240302 -0.0190375 13.0753)
(0.238091 -0.0331364 13.2611)
(0.239017 -0.021887 13.5305)
(0.238043 -0.0331267 13.261)
(0.239031 -0.0221492 13.5306)
(0.241728 -0.00801453 13.8686)
(0.266446 -0.00803609 14.1645)
(0.241806 -0.00805558 13.8685)
(0.266362 -0.00804412 14.1642)
(0.270679 0.0122814 13.997)
(0.286979 -0.0205984 14.442)
(0.270633 0.0122953 13.997)
(0.286966 -0.0205833 14.4424)
(0.282454 -0.0284883 14.5732)
(0.305357 -0.00352545 14.8431)
(0.282492 -0.0284637 14.5735)
(0.305199 -0.00351191 14.8415)
(0.198581 -0.0563702 14.4697)
(0.221214 -0.0153259 13.3097)
(0.251845 -0.0284021 15.2893)
(0.152517 -0.0182905 12.3384)
(0.22112 -0.0152637 13.3094)
(0.213669 -0.0364039 14.805)
(0.251814 -0.0284654 15.2892)
(0.253884 -0.0200271 14.1012)
(0.271316 -0.0259666 15.5603)
(0.287984 -0.0286099 15.8201)
(0.220623 -0.0186646 13.373)
(0.253874 -0.020033 14.1011)
(0.271284 -0.0260077 15.5602)
(0.287964 -0.0286492 15.82)
(0.265271 -0.024121 14.6194)
(0.292693 -0.0294487 15.9923)
(0.298199 -0.0236425 16.0956)
(0.259384 -0.0317652 14.338)
(0.265306 -0.0244372 14.6204)
(0.29267 -0.029496 15.9922)
(0.29819 -0.0237177 16.0956)
(0.295759 -0.0101756 15.3553)
(0.306569 -0.0134189 16.1661)
(0.318374 -0.0152016 16.26)
(0.280312 -0.00988836 15.1819)
(0.295744 -0.0101691 15.3552)
(0.306568 -0.0134156 16.1661)
(0.318365 -0.0152063 16.2599)
(0.31846 -0.0222466 15.516)
(0.331987 -0.0107465 16.3252)
(0.337235 -0.0203523 16.3847)
(0.296233 0.00233109 14.9651)
(0.318451 -0.0222427 15.5159)
(0.331973 -0.0107214 16.3251)
(0.33722 -0.0203749 16.3847)
(0.2403 -0.0190407 13.0753)
(0.240304 -0.0190361 13.0752)
(0.238065 -0.0331298 13.261)
(0.238991 -0.0218875 13.5304)
(0.238043 -0.0331234 13.261)
(0.239025 -0.0221521 13.5305)
(0.241705 -0.00801404 13.8686)
(0.266421 -0.00804366 14.1645)
(0.241801 -0.00805566 13.8684)
(0.266353 -0.00805348 14.1642)
(0.270654 0.0122829 13.997)
(0.286955 -0.0205996 14.4419)
(0.270625 0.0122993 13.9969)
(0.286956 -0.0205858 14.4423)
(0.282431 -0.0284809 14.5732)
(0.305334 -0.00353048 14.8431)
(0.282482 -0.0284569 14.5735)
(0.305188 -0.00351721 14.8415)
(0.198369 -0.0563699 14.4636)
(0.198529 -0.0563086 14.468)
(0.22119 -0.0153335 13.3097)
(0.213626 -0.0363415 14.8049)
(0.251786 -0.028433 15.2892)
(0.152437 -0.0182802 12.3383)
(0.221125 -0.0152714 13.3094)
(0.213598 -0.0364127 14.8048)
(0.251773 -0.0284929 15.2891)
(0.253849 -0.0200368 14.1011)
(0.271276 -0.0259673 15.5602)
(0.287955 -0.0286137 15.82)
(0.220636 -0.0186618 13.3729)
(0.253867 -0.0200435 14.101)
(0.271265 -0.026009 15.5601)
(0.287949 -0.028654 15.8199)
(0.265241 -0.0241213 14.6194)
(0.292666 -0.0294484 15.9922)
(0.298172 -0.0236478 16.0956)
(0.259377 -0.0317649 14.3379)
(0.265295 -0.0244395 14.6203)
(0.292656 -0.0294951 15.9922)
(0.298174 -0.0237232 16.0956)
(0.295735 -0.0101772 15.3552)
(0.306548 -0.0134135 16.1661)
(0.318352 -0.0152109 16.26)
(0.2803 -0.00988591 15.1819)
(0.29573 -0.0101716 15.3551)
(0.306557 -0.013409 16.166)
(0.318354 -0.0152164 16.2598)
(0.318438 -0.0222441 15.5159)
(0.331966 -0.0107473 16.3252)
(0.337213 -0.0203532 16.3847)
(0.296222 0.00233155 14.9651)
(0.318437 -0.0222408 15.5159)
(0.33196 -0.0107212 16.3251)
(0.337206 -0.0203764 16.3846)
(0.240308 -0.0190403 13.0752)
(0.240337 -0.0190373 13.0752)
(0.238074 -0.0331272 13.261)
(0.238991 -0.0218911 13.5303)
(0.23807 -0.0331232 13.2609)
(0.239043 -0.0221575 13.5305)
(0.241705 -0.00801436 13.8685)
(0.266416 -0.00805326 14.1644)
(0.241817 -0.00805672 13.8683)
(0.266363 -0.00806445 14.1641)
(0.270651 0.012287 13.997)
(0.286949 -0.0206025 14.4419)
(0.270637 0.0123041 13.9969)
(0.286964 -0.0205904 14.4423)
(0.282425 -0.0284744 14.5732)
(0.305327 -0.00353593 14.8431)
(0.282489 -0.0284516 14.5735)
(0.305194 -0.00352304 14.8415)
(0.198328 -0.0563113 14.462)
(0.198518 -0.0562707 14.4666)
(0.221203 -0.0153414 13.3097)
(0.213574 -0.0363501 14.8046)
(0.251761 -0.0284584 15.2891)
(0.152391 -0.018274 12.3382)
(0.221158 -0.0152802 13.3093)
(0.213564 -0.0364235 14.8045)
(0.251763 -0.0285185 15.289)
(0.253847 -0.0200474 14.101)
(0.271264 -0.0259694 15.5601)
(0.287953 -0.0286197 15.8199)
(0.220676 -0.0186623 13.3728)
(0.253889 -0.0200542 14.101)
(0.27127 -0.0260132 15.56)
(0.287959 -0.0286608 15.8198)
(0.265236 -0.0241239 14.6193)
(0.292664 -0.0294474 15.9921)
(0.298167 -0.0236534 16.0955)
(0.259393 -0.031766 14.3379)
(0.265306 -0.0244433 14.6203)
(0.292665 -0.029494 15.9921)
(0.298178 -0.0237288 16.0955)
(0.295729 -0.0101803 15.3552)
(0.306546 -0.0134059 16.166)
(0.318348 -0.0152211 16.2599)
(0.280307 -0.00988275 15.1818)
(0.295734 -0.0101757 15.3551)
(0.306564 -0.0134018 16.166)
(0.31836 -0.0152277 16.2598)
(0.318434 -0.0222432 15.5159)
(0.331963 -0.010747 16.3252)
(0.337206 -0.0203549 16.3847)
(0.29623 0.00233282 14.9651)
(0.318441 -0.022241 15.5158)
(0.331962 -0.0107207 16.3251)
(0.337206 -0.0203792 16.3846)
(0.240344 -0.0190419 13.0752)
(0.240389 -0.0190399 13.0751)
(0.23811 -0.0331289 13.2609)
(0.239014 -0.0218964 13.5302)
(0.238118 -0.033126 13.2609)
(0.23908 -0.0221645 13.5304)
(0.241725 -0.00801489 13.8684)
(0.26643 -0.00806402 14.1644)
(0.24185 -0.00805814 13.8683)
(0.266389 -0.00807602 14.1641)
(0.270668 0.012292 13.9969)
(0.286961 -0.0206072 14.4419)
(0.270666 0.0123097 13.9969)
(0.286988 -0.0205964 14.4423)
(0.282436 -0.0284693 14.5732)
(0.305337 -0.00354154 14.8431)
(0.28251 -0.0284476 14.5735)
(0.305214 -0.00352819 14.8415)
(0.198327 -0.0562824 14.4607)
(0.198545 -0.0562738 14.4655)
(0.221242 -0.0153501 13.3097)
(0.213558 -0.0363606 14.8044)
(0.251765 -0.0284818 15.289)
(0.152376 -0.0182703 12.338)
(0.221212 -0.0152882 13.3094)
(0.213567 -0.0364329 14.8043)
(0.25178 -0.0285381 15.289)
(0.253872 -0.0200582 14.101)
(0.271276 -0.0259735 15.56)
(0.287973 -0.0286262 15.8198)
(0.220734 -0.0186644 13.3728)
(0.253933 -0.0200645 14.1009)
(0.271294 -0.0260173 15.5599)
(0.287988 -0.0286675 15.8198)
(0.265252 -0.0241281 14.6193)
(0.292682 -0.0294463 15.9921)
(0.298179 -0.023659 16.0955)
(0.259431 -0.0317692 14.3378)
(0.265335 -0.0244488 14.6202)
(0.292691 -0.0294938 15.9921)
(0.298199 -0.0237351 16.0955)
(0.295741 -0.0101852 15.3552)
(0.306561 -0.0133984 16.166)
(0.31836 -0.0152327 16.2599)
(0.280331 -0.00987986 15.1818)
(0.295755 -0.0101813 15.3551)
(0.306586 -0.0133959 16.166)
(0.318382 -0.0152413 16.2598)
(0.318445 -0.0222443 15.5159)
(0.331974 -0.0107466 16.3252)
(0.337215 -0.0203582 16.3847)
(0.296253 0.00233448 14.9651)
(0.318459 -0.0222428 15.5158)
(0.33198 -0.0107205 16.3251)
(0.337221 -0.020383 16.3846)
(0.240401 -0.019045 13.0751)
(0.240459 -0.0190443 13.0751)
(0.238164 -0.0331331 13.2609)
(0.239055 -0.0219034 13.5302)
(0.238182 -0.0331319 13.2609)
(0.239133 -0.0221725 13.5303)
(0.241763 -0.00801554 13.8684)
(0.266461 -0.00807468 14.1643)
(0.241899 -0.00805848 13.8682)
(0.26643 -0.00808607 14.1641)
(0.270701 0.0122979 13.9969)
(0.286989 -0.0206128 14.4419)
(0.270709 0.0123163 13.9969)
(0.287024 -0.0206028 14.4423)
(0.28246 -0.0284654 14.5732)
(0.30536 -0.00354637 14.8431)
(0.282544 -0.028445 14.5735)
(0.305246 -0.00353297 14.8415)
(0.198362 -0.0562894 14.4596)
(0.198597 -0.0563 14.4647)
(0.2213 -0.0153577 13.3097)
(0.213576 -0.0363697 14.8041)
(0.25179 -0.0284989 15.289)
(0.152384 -0.0182709 12.3377)
(0.221278 -0.0152966 13.3094)
(0.213594 -0.0364401 14.804)
(0.251815 -0.0285562 15.2889)
(0.253919 -0.0200686 14.1009)
(0.271306 -0.0259785 15.5599)
(0.288011 -0.0286338 15.8197)
(0.220805 -0.0186693 13.3727)
(0.253995 -0.020076 14.1009)
(0.271334 -0.0260258 15.5599)
(0.288035 -0.0286775 15.8197)
(0.265286 -0.0241334 14.6192)
(0.292717 -0.0294463 15.9921)
(0.298208 -0.0236646 16.0955)
(0.259487 -0.0317745 14.3378)
(0.265381 -0.0244545 14.6202)
(0.292734 -0.0294944 15.992)
(0.298236 -0.02374 16.0955)
(0.295768 -0.0101895 15.3552)
(0.30659 -0.0133894 16.166)
(0.318386 -0.0152436 16.2599)
(0.280369 -0.00987431 15.1818)
(0.295789 -0.0101849 15.3551)
(0.306622 -0.0133856 16.166)
(0.318415 -0.0152497 16.2598)
(0.318471 -0.0222464 15.5159)
(0.331999 -0.0107451 16.3252)
(0.337236 -0.0203617 16.3847)
(0.296291 0.00233786 14.9651)
(0.318491 -0.0222451 15.5158)
(0.332008 -0.0107179 16.3251)
(0.337247 -0.0203865 16.3846)
(0.229762 -0.0692267 15.2794)
(0.240476 -0.0190495 13.0751)
(0.240542 -0.019049 13.0751)
(0.238233 -0.0331391 13.2609)
(0.239111 -0.0219111 13.5301)
(0.23826 -0.0331395 13.2609)
(0.239198 -0.0221813 13.5303)
(0.241814 -0.00801588 13.8683)
(0.266504 -0.00808437 14.1643)
(0.241959 -0.00805958 13.8682)
(0.266482 -0.00809705 14.1641)
(0.270747 0.0123046 13.9969)
(0.287028 -0.0206189 14.4419)
(0.270763 0.0123228 13.9968)
(0.287072 -0.0206099 14.4423)
(0.282497 -0.0284629 14.5732)
(0.305394 -0.00355069 14.8431)
(0.282589 -0.0284439 14.5735)
(0.305288 -0.00353676 14.8415)
(0.198417 -0.0563167 14.4589)
(0.19866 -0.0563317 14.4641)
(0.221369 -0.0153664 13.3097)
(0.213611 -0.0363783 14.8039)
(0.251832 -0.0285181 15.2889)
(0.152405 -0.0182735 12.3374)
(0.221354 -0.015304 13.3094)
(0.213637 -0.0364463 14.8039)
(0.251864 -0.0285698 15.2889)
(0.253984 -0.0200797 14.1009)
(0.271351 -0.0259869 15.5599)
(0.288065 -0.0286431 15.8197)
(0.220885 -0.0186747 13.3727)
(0.254072 -0.0200859 14.1008)
(0.271388 -0.026033 15.5598)
(0.288094 -0.0286846 15.8197)
(0.265335 -0.0241391 14.6192)
(0.292766 -0.0294457 15.992)
(0.29825 -0.0236682 16.0955)
(0.259557 -0.0317806 14.3378)
(0.265439 -0.024461 14.6202)
(0.292789 -0.0294944 15.992)
(0.298283 -0.0237454 16.0955)
(0.295808 -0.0101941 15.3551)
(0.306632 -0.0133802 16.166)
(0.318425 -0.0152527 16.2599)
(0.280419 -0.00987078 15.1818)
(0.295836 -0.0101908 15.3551)
(0.306669 -0.0133795 16.166)
(0.318461 -0.015262 16.2598)
(0.318509 -0.0222496 15.5159)
(0.332036 -0.0107439 16.3252)
(0.337268 -0.0203655 16.3847)
(0.29634 0.00234059 14.965)
(0.318533 -0.0222487 15.5158)
(0.332049 -0.0107167 16.3251)
(0.337284 -0.0203912 16.3846)
(0.229814 -0.0691821 15.2789)
(0.229823 -0.0693066 15.2787)
(0.240562 -0.0190538 13.0751)
(0.24064 -0.0190546 13.0751)
(0.238315 -0.0331468 13.2609)
(0.23918 -0.0219195 13.5301)
(0.238352 -0.033149 13.2608)
(0.239277 -0.0221907 13.5303)
(0.241876 -0.00801648 13.8683)
(0.26656 -0.00809406 14.1643)
(0.242032 -0.00805962 13.8682)
(0.266546 -0.00810588 14.1641)
(0.270805 0.0123119 13.9969)
(0.287078 -0.0206258 14.4419)
(0.270825 0.0123305 13.9968)
(0.287127 -0.0206165 14.4423)
(0.282544 -0.0284621 14.5731)
(0.305438 -0.00355397 14.8431)
(0.282641 -0.028444 14.5735)
(0.305337 -0.00353966 14.8416)
(0.198483 -0.0563511 14.4584)
(0.198736 -0.0563784 14.4639)
(0.221447 -0.0153733 13.3097)
(0.213661 -0.0363855 14.8038)
(0.25189 -0.028529 15.2889)
(0.152442 -0.0182791 12.3371)
(0.221443 -0.0153124 13.3094)
(0.213696 -0.0364581 14.8037)
(0.251931 -0.0285858 15.2889)
(0.254063 -0.0200896 14.1009)
(0.271409 -0.0259926 15.5599)
(0.288131 -0.0286507 15.8197)
(0.220978 -0.0186823 13.3727)
(0.254165 -0.0200983 14.1008)
(0.271459 -0.0260442 15.5598)
(0.288166 -0.0286947 15.8196)
(0.265396 -0.0241452 14.6192)
(0.292829 -0.0294461 15.992)
(0.298303 -0.0236722 16.0955)
(0.259642 -0.0317886 14.3378)
(0.265511 -0.0244683 14.6202)
(0.292858 -0.0294957 15.992)
(0.298346 -0.0237511 16.0955)
(0.295861 -0.0101988 15.3551)
(0.306685 -0.013372 16.166)
(0.318475 -0.0152629 16.2599)
(0.280481 -0.00986541 15.1818)
(0.295894 -0.0101947 15.3551)
(0.306727 -0.0133712 16.166)
(0.318516 -0.0152702 16.2598)
(0.318557 -0.0222535 15.5159)
(0.332083 -0.0107413 16.3252)
(0.337311 -0.0203686 16.3847)
(0.2964 0.00234531 14.965)
(0.318584 -0.0222524 15.5158)
(0.332098 -0.0107128 16.3251)
(0.337328 -0.0203948 16.3846)
(0.229878 -0.0692641 15.2783)
(0.229886 -0.0693915 15.2782)
(0.240666 -0.0190589 13.0751)
(0.240759 -0.0190603 13.075)
(0.238414 -0.0331558 13.2608)
(0.239262 -0.0219283 13.5301)
(0.238463 -0.0331595 13.2608)
(0.23937 -0.0222006 13.5303)
(0.24195 -0.00801628 13.8683)
(0.266625 -0.00810195 14.1643)
(0.242117 -0.00806089 13.8682)
(0.266617 -0.00811126 14.1641)
(0.270872 0.0123199 13.9968)
(0.287135 -0.0206328 14.4419)
(0.270892 0.0123382 13.9968)
(0.287188 -0.0206224 14.4423)
(0.282598 -0.0284622 14.5731)
(0.305487 -0.00355597 14.8431)
(0.282698 -0.028445 14.5735)
(0.305389 -0.00354203 14.8416)
(0.19856 -0.0563938 14.4583)
(0.198847 -0.0564349 14.4639)
(0.221542 -0.0153817 13.3097)
(0.213731 -0.0363915 14.8036)
(0.25197 -0.0285417 15.2889)
(0.152516 -0.0182854 12.3368)
(0.221566 -0.0153214 13.3094)
(0.213792 -0.0364748 14.8036)
(0.252036 -0.0285965 15.289)
(0.254159 -0.0201012 14.1008)
(0.271493 -0.0259989 15.5599)
(0.288219 -0.0286568 15.8197)
(0.221101 -0.0186883 13.3726)
(0.254281 -0.0201118 14.1008)
(0.271541 -0.026047 15.5599)
(0.28826 -0.0287021 15.8197)
(0.265472 -0.0241507 14.6192)
(0.292907 -0.0294428 15.9921)
(0.29837 -0.0236729 16.0955)
(0.259747 -0.0317973 14.3378)
(0.265597 -0.0244753 14.6202)
(0.292946 -0.0294957 15.9921)
(0.298422 -0.0237566 16.0956)
(0.295924 -0.0102028 15.3552)
(0.306749 -0.013364 16.166)
(0.318539 -0.0152727 16.2599)
(0.280556 -0.00986277 15.1818)
(0.295963 -0.0101972 15.3551)
(0.3068 -0.0133672 16.166)
(0.318583 -0.0152837 16.2599)
(0.318613 -0.0222582 15.5159)
(0.332139 -0.0107384 16.3253)
(0.337361 -0.0203723 16.3848)
(0.296461 0.0023495 14.9651)
(0.318641 -0.0222559 15.5158)
(0.332154 -0.0107115 16.3252)
(0.337378 -0.0204001 16.3847)
(0.22994 -0.0693006 15.2779)
(0.163671 -0.0999793 12.7336)
(0.229969 -0.0694229 15.2779)
(0.240791 -0.0190634 13.075)
(0.24091 -0.019065 13.075)
(0.238533 -0.0331663 13.2608)
(0.239359 -0.0219369 13.5301)
(0.238602 -0.0331719 13.2608)
(0.239476 -0.0222089 13.5303)
(0.242039 -0.0080166 13.8683)
(0.266698 -0.00810633 14.1644)
(0.242212 -0.00806325 13.8682)
(0.266693 -0.00811324 14.1641)
(0.270945 0.0123292 13.9968)
(0.287198 -0.0206391 14.4419)
(0.270965 0.0123437 13.9968)
(0.287253 -0.0206285 14.4423)
(0.282656 -0.0284628 14.5731)
(0.305539 -0.00355693 14.8432)
(0.28276 -0.0284472 14.5735)
(0.305441 -0.00353959 14.8416)
(0.198699 -0.0564942 14.4583)
(0.199021 -0.0564954 14.4642)
(0.221676 -0.0153888 13.3097)
(0.213867 -0.0364049 14.8036)
(0.252098 -0.0285414 15.289)
(0.152653 -0.0182719 12.3365)
(0.221743 -0.0153198 13.3093)
(0.213952 -0.0364155 14.8036)
(0.25218 -0.0285785 15.2891)
(0.254279 -0.0201143 14.1008)
(0.271599 -0.0259986 15.5599)
(0.288328 -0.0286606 15.8198)
(0.221273 -0.0186918 13.3726)
(0.254428 -0.0201273 14.1008)
(0.271676 -0.0260417 15.56)
(0.288386 -0.0287029 15.8199)
(0.265562 -0.0241565 14.6192)
(0.293003 -0.029442 15.9922)
(0.298453 -0.0236749 16.0956)
(0.259882 -0.0318074 14.3378)
(0.265698 -0.0244805 14.6202)
(0.293057 -0.0294926 15.9923)
(0.298516 -0.0237569 16.0959)
(0.295997 -0.0102044 15.3552)
(0.306826 -0.0133611 16.1662)
(0.31861 -0.0152859 16.2601)
(0.280644 -0.00985938 15.1819)
(0.296039 -0.0102006 15.3553)
(0.306883 -0.0133635 16.1663)
(0.318644 -0.0152949 16.2602)
(0.318676 -0.0222609 15.516)
(0.332204 -0.0107363 16.3255)
(0.337418 -0.0203755 16.3849)
(0.296527 0.00235018 14.9651)
(0.318703 -0.0222624 15.5159)
(0.33222 -0.0107161 16.3254)
(0.337437 -0.0204073 16.3849)
(0.230067 -0.0695741 15.2774)
(0.164052 -0.10016 12.7466)
(0.230135 -0.0696887 15.2783)
(0.24095 -0.0190644 13.075)
(0.241112 -0.0190701 13.0751)
(0.238679 -0.0331757 13.2608)
(0.239468 -0.0219435 13.5301)
(0.238782 -0.033188 13.2609)
(0.2396 -0.0222165 13.5304)
(0.242136 -0.00801756 13.8683)
(0.266773 -0.0081049 14.1644)
(0.242304 -0.00806385 13.8683)
(0.266759 -0.00810516 14.1643)
(0.271018 0.0123357 13.9969)
(0.287263 -0.0206435 14.4419)
(0.271033 0.0123436 13.9969)
(0.287326 -0.0206452 14.4424)
(0.282718 -0.0284667 14.5732)
(0.305589 -0.00355256 14.8432)
(0.282832 -0.0284507 14.5736)
(0.305494 -0.00353086 14.8418)
(0.198841 -0.0562786 14.4586)
(0.199902 -0.055445 14.4631)
(0.221882 -0.0153774 13.3096)
(0.21403 -0.0361441 14.8035)
(0.252297 -0.0284622 15.2893)
(0.153202 -0.0181399 12.3354)
(0.222131 -0.0152823 13.3092)
(0.214334 -0.0361857 14.8032)
(0.252623 -0.0284323 15.2897)
(0.254435 -0.0201264 14.1008)
(0.271773 -0.0259667 15.5602)
(0.288473 -0.0286528 15.8202)
(0.221575 -0.0186786 13.3725)
(0.254628 -0.0201533 14.101)
(0.271925 -0.0259721 15.5606)
(0.288578 -0.0286861 15.8206)
(0.265667 -0.0241613 14.6193)
(0.293128 -0.0294388 15.9926)
(0.298557 -0.0236831 16.096)
(0.260056 -0.0318208 14.338)
(0.265825 -0.0244878 14.6206)
(0.293207 -0.029491 15.9931)
(0.298634 -0.0237732 16.0967)
(0.296076 -0.0102091 15.3555)
(0.306918 -0.0133681 16.1666)
(0.318677 -0.015307 16.2605)
(0.280748 -0.00985836 15.1823)
(0.29612 -0.0102047 15.3558)
(0.306989 -0.0133754 16.1671)
(0.31873 -0.0153215 16.2609)
(0.318745 -0.022266 15.5162)
(0.332272 -0.010745 16.3259)
(0.337479 -0.0203874 16.3853)
(0.296595 0.00234669 14.9654)
(0.318777 -0.0222747 15.5162)
(0.332295 -0.0107299 16.3261)
(0.33751 -0.0204175 16.3856)
(0.230239 -0.0681343 15.2779)
(0.165947 -0.0991245 12.7522)
(0.23069 -0.0669354 15.276)
(0.241163 -0.019062 13.0751)
(0.241315 -0.0191082 13.0755)
(0.238856 -0.0331841 13.2609)
(0.239576 -0.0219376 13.5302)