# vtk DataFile Version 2.0
sampleSurface
ASCII
DATASET POLYDATA
POINTS 3098 float
0.746192 0 -5.00894e-05 -6.50534 1.11022e-16 -4.7391e-05 0.739507 0 7.49995 7.99812 0
1.94289e-05 -6.5124 -1.11022e-16 7.49992 7.99235 -1.11022e-16 7.50019 -13.7546 0 -1.50031e-05
0.734852 -1.11022e-16 14.9998 15.2496 -1.11022e-16 6.60617e-05 -13.7602 0 7.49982 -6.51784
-1.11022e-16 14.9998 15.2414 -1.11022e-16 7.50009 7.98685 0 14.9998 -13.7648 0
14.9999 -20.9938 0 4.36099e-06 15.2348 -1.11022e-16 14.9998 -20.9936 2.22045e-16 7.49977
22.5022 0 1.49541e-05 0.735071 0 22.4998 -6.51815 -1.11022e-16 22.4999 22.4915
0 7.49989 7.98745 -1.11022e-16 22.4998 -20.9933 -1.11022e-16 14.9999 -13.7652 1.11022e-16
22.4999 22.4829 -1.11022e-16 14.9998 15.2356 0 22.4998 -28.2515 0 2.62893e-05
-28.2534 0 7.50012 29.7556 -1.11022e-16 -4.54549e-05 0.735819 1.11022e-16 29.9999 29.7426
0 7.4992 -6.51767 0 29.9999 -20.9933 -1.11022e-16 22.5 7.98856 0
29.9999 22.4839 1.11022e-16 22.4999 -28.255 0 15 -13.7649 0 30
29.7256 0 14.9997 15.237 0 29.9999 -35.5072 -1.11022e-16 5.90779e-05 -28.2551
0 22.5 -35.5123 1.11022e-16 7.50007 -20.993 1.11022e-16 30 36.9932 0
-7.53554e-05 29.7252 1.11022e-16 22.4999 22.4857 -1.11022e-16 29.9999 0.736256 -1.11022e-16 37.5
37.0663 -1.11022e-16 7.5 -6.5174 0 37.5 7.98913 1.11022e-16 37.5 -35.5169
-2.22045e-16 15 36.9578 0 14.9999 -13.7648 0 37.5 15.2378 0
37.5 -28.255 0 30 -35.5174 0 22.5 29.7273 -1.11022e-16 30
-42.7594 0 0.000106246 -20.9929 1.11022e-16 37.5 36.9398 -3.33067e-16 22.4999 -42.765
0 7.50013 22.4866 -1.11022e-16 37.5 44.3067 1.11022e-16 -0.000173064 44.3156 -5.55112e-17
3.74923 44.3638 -1.11022e-16 7.50044 0.736588 -1.11022e-16 45 -42.7692 2.22045e-16 15.0001
-6.51713 0 45 7.98959 0 45 -35.5174 0 30 44.2537
1.11022e-16 14.9995 -28.2549 0 37.5 -13.7646 -2.22045e-16 45 15.2384 1.11022e-16
45 36.9405 0 30 29.7284 0 37.5 47.8983 5.55112e-17 -0.000231375
47.9106 0 3.74943 -42.7696 1.11022e-16 22.5 48.0131 0 7.50081 44.229
-2.22045e-16 22.4999 -20.9927 -1.11022e-16 45 -50 -1.11022e-16 0.000116555 22.4873 -1.11022e-16
45 -50 -1.11022e-16 7.50012 51.4805 0 -0.000354952 -35.5173 1.11022e-16 37.5
51.6484 5.55112e-17 3.75115 -50 -2.22045e-16 15.0001 51.6711 0 7.50084 -42.7696
0 30 0.736735 -1.11022e-16 52.5 36.9419 0 37.5 51.4953 -1.11022e-16
11.2492 -6.51706 0 52.5 7.98975 0 52.5 -28.2549 0 45
44.2289 -1.11022e-16 30 51.37 -5.55112e-17 14.9994 29.729 -1.11022e-16 45 -13.7646
0 52.5 51.3052 -2.1684e-19 18.7496 51.3048 -2.60209e-18 18.8318 15.2386 -2.22045e-16
52.5 51.3708 -2.38524e-18 18.7496 -50 1.11022e-16 22.5 54.9985 0 -0.00260162
55.0346 0 1.87535 55.1369 0 3.75138 55.3085 5.55112e-17 7.50038 51.2883
-5.55112e-17 22.4998 55.0461 -5.55112e-17 11.249 -20.9927 0 52.5 56.7456 0
0.0299735 56.7783 -2.77556e-17 1.87544 -42.7696 0 37.5 54.8698 0 14.9993
56.8619 2.77556e-17 3.75216 22.4876 1.11022e-16 52.5 -35.5173 -1.11022e-16 45 54.8229
0 17.1162 51.2808 6.93889e-18 26.2499 55.7413 -6.93889e-18 14.9994 54.8037 0
18.7496 44.2298 -1.11022e-16 37.5 36.9422 -2.22045e-16 45 -50 0 30
58.4645 0 -0.244693 58.5154 0 1.88535 58.9168 0 -0.257294 58.9375
1.38778e-17 1.84572 58.8346 1.38778e-17 4.04008 59.1468 -3.46945e-18 1.82581 59.2027 0
-0.270676 59.0815 0 3.9148 54.7907 0 22.4998 59.2532 0 -0.267831
59.2573 0 1.824 58.2324 -1.38778e-17 11.2624 59.254 0 3.02719 58.004
1.38778e-17 12.6256 59.2576 -3.46945e-18 3.82483 51.283 -6.245e-17 30 57.6498 2.77556e-17
14.9995 -28.2548 1.11022e-16 52.5 59.2774 -2.77556e-17 7.62697 58.8187 2.77556e-17 11.263
58.0011 -1.38778e-17 14.9995 0.736891 0 60 58.3071 0 14.9994 29.7293
1.11022e-16 52.5 59.2786 -2.77556e-17 11.2636 -6.5169 0 60 57.4289 2.77556e-17
18.7498 7.98997 -1.11022e-16 60 58.8533 5.55112e-17 14.9994 54.7868 1.249e-16 26.2499
58.0003 -1.38778e-17 18.7498 58.1668 0 18.7498 59.2769 -2.77556e-17 14.9994 51.2799
6.93889e-18 33.75 -13.7644 0 60 57.3667 0 22.4999 58.7945 0
18.7497 15.2389 1.11022e-16 60 -42.7696 -1.11022e-16 45 59.2786 -2.77556e-17 18.7497
57.9997 2.77556e-17 22.4999 58.1285 -6.245e-17 22.4999 54.7871 0 30 -50
0 37.5 58.7775 2.77556e-17 22.4999 57.3544 0 26.25 44.2301 -1.11022e-16
45 -35.5173 -2.22045e-16 52.5 59.2769 0 22.4998 51.283 -6.93889e-18 37.5
-20.9926 1.11022e-16 60 58.0001 0 26.25 58.1216 0 26.25 22.4878
1.11022e-16 60 36.9426 0 52.5 54.7861 -8.32667e-17 33.75 58.7756 0
26.25 57.3526 -1.66533e-16 30 59.2786 0 26.25 57.9997 -2.08167e-17 30
58.1203 2.08167e-17 30 51.28 0 41.25 58.7742 -5.55112e-17 30 -28.2547
0 60 54.7871 0 37.5 59.2769 0 30 57.3525 0
33.75 29.7295 0 60 58.0002 0 33.75 58.1205 -6.93889e-18 33.75
-50 0 45 0.736925 0 67.5 -42.7695 0 52.5 58.7752
-2.77556e-17 33.75 -6.5169 3.33067e-16 67.5 7.98998 -1.11022e-16 67.5 59.2786 2.77556e-17
33.75 51.2831 -3.46945e-17 45 57.3524 5.55112e-17 37.5 54.7862 1.38778e-17 41.25
44.2303 1.11022e-16 52.5 -13.7644 0 67.5 57.9998 0 37.5 58.1202
4.16334e-17 37.5 15.2389 -1.11022e-16 67.5 58.7741 0 37.5 -35.5171 1.11022e-16
60 59.2769 0 37.5 36.9425 0 60 57.3524 -5.55112e-17 41.25
-20.9926 -1.11022e-16 67.5 51.2801 -6.93889e-18 48.75 54.787 0 45 22.4878
2.22045e-16 67.5 58.0002 6.93889e-18 41.25 58.1204 0 41.25 58.7752 -2.77556e-17
41.25 59.2786 -2.77556e-17 41.25 -50 0 52.5 57.3524 0 45
-28.2547 1.11022e-16 67.5 54.7862 -2.77556e-17 48.75 51.2831 -6.245e-17 52.5 57.9998
6.93889e-18 45 58.1202 -6.93889e-18 45 -42.7695 -1.11022e-16 60 29.7296 0
67.5 58.7741 2.77556e-17 45 59.2769 0 45 44.2304 -2.22045e-16 60
0.737014 0 75 57.3524 0 48.75 -6.51679 -1.11022e-16 75 7.99012
-2.22045e-16 75 58.0002 -6.93889e-18 48.75 58.1204 0 48.75 54.787 -1.38778e-17
52.5 51.2801 0 56.25 -13.7644 0 75 -35.5171 -1.11022e-16 67.5
58.7752 2.77556e-17 48.75 15.239 0 75 59.2786 2.77556e-17 48.75 36.9428
2.22045e-16 67.5 57.3524 0 52.5 -20.9926 1.11022e-16 75 -50 -1.11022e-16
60 57.9998 6.93889e-18 52.5 22.4879 0 75 58.1202 -6.93889e-18 52.5
54.7862 -1.38778e-17 56.25 58.7741 2.77556e-17 52.5 51.2831 -1.38778e-17 60 59.2769
-2.77556e-17 52.5 -42.7695 0 67.5 -28.2547 1.11022e-16 75 57.3524 0
56.25 29.7296 0 75 44.2304 -1.11022e-16 67.5 58.0002 2.08167e-17 56.25
58.1204 6.93889e-18 56.25 54.7871 0 60 58.7752 2.77556e-17 56.25 59.2786
2.77556e-17 56.25 51.2801 0 63.75 0.737004 -1.11022e-16 82.5 -6.51683 0
82.5 7.99007 1.11022e-16 82.5 -35.5171 0 75 57.3524 0 60
57.9998 1.38778e-17 60 58.1202 4.85723e-17 60 36.9426 1.11022e-16 75 -13.7644
1.11022e-16 82.5 15.239 -2.22045e-16 82.5 58.7741 2.77556e-17 60 -50 2.22045e-16
67.5 54.7862 -2.77556e-17 63.75 59.2769 -2.77556e-17 60 51.2831 -6.245e-17 67.5
-20.9926 -1.11022e-16 82.5 22.4879 1.11022e-16 82.5 57.3524 0 63.75 58.0002
6.93889e-18 63.75 58.1204 6.93889e-18 63.75 -42.7695 0 75 58.7752 -2.77556e-17
63.75 54.787 0 67.5 59.2786 2.77556e-17 63.75 44.2304 0 75
-28.2547 -1.11022e-16 82.5 29.7297 0 82.5 51.2801 0 71.25 57.3524
0 67.5 57.9998 1.38778e-17 67.5 58.1202 4.85723e-17 67.5 58.7741 2.77556e-17
67.5 -35.5171 0 82.5 59.2769 -2.77556e-17 67.5 54.7862 -6.93889e-17 71.25
0.737067 -1.11022e-16 90 -50 -1.11022e-16 75 -6.51675 -1.11022e-16 90 7.99018
1.11022e-16 90 36.9429 2.22045e-16 82.5 51.2831 1.17961e-16 75 -13.7643 0
90 15.239 -1.11022e-16 90 57.3524 0 71.25 58.0002 6.93889e-18 71.25
58.1204 6.93889e-18 71.25 58.7752 -2.77556e-17 71.25 -20.9925 1.11022e-16 90 59.2786
2.77556e-17 71.25 22.488 1.11022e-16 90 54.7871 0 75 -42.7695 0
82.5 44.2305 0 82.5 51.2801 -6.93889e-18 78.75 -28.2547 -2.22045e-16 90
57.3524 0 75 29.7297 -1.11022e-16 90 57.9998 1.38778e-17 75 58.1202
4.85723e-17 75 58.7741 2.77556e-17 75 59.2769 -2.77556e-17 75 54.7862 0
78.75 -50 0 82.5 -35.5171 1.11022e-16 90 51.2831 -1.80411e-16 82.5
36.9427 1.11022e-16 90 57.3524 0 78.75 0.737038 0 97.5 -6.5168
0 97.5 58.0002 6.93889e-18 78.75 7.9901 -1.11022e-16 97.5 58.1204 6.93889e-18
78.75 58.7752 -2.77556e-17 78.75 -13.7644 2.22045e-16 97.5 59.2786 2.77556e-17 78.75
15.239 0 97.5 54.787 -1.38778e-17 82.5 -42.7695 -1.11022e-16 90 -20.9926
-1.11022e-16 97.5 22.4879 0 97.5 44.2304 1.11022e-16 90 51.2801 0
86.25 57.3524 0 82.5 57.9998 -6.93889e-18 82.5 58.1202 4.85723e-17 82.5
58.7741 2.77556e-17 82.5 -28.2547 0 97.5 59.2769 -2.77556e-17 82.5 29.7297
1.11022e-16 97.5 54.7862 1.38778e-17 86.25 -50 0 90 57.3524 0
86.25 51.2831 -6.93889e-18 90 -35.5171 -1.11022e-16 97.5 58.0002 1.38778e-17 86.25
58.1204 6.93889e-18 86.25 36.9429 2.22045e-16 97.5 58.7752 -2.77556e-17 86.25 59.2786
2.77556e-17 86.25 0.73709 -1.11022e-16 105 -6.51673 0 105 7.9902 -1.11022e-16
105 54.7871 0 90 -13.7643 0 105 15.239 1.11022e-16 105
-42.7695 -1.11022e-16 97.5 57.3524 0 90 51.2801 0 93.75 44.2305
1.11022e-16 97.5 57.9998 1.38778e-17 90 -20.9925 2.22045e-16 105 58.1202 4.85723e-17
90 22.4881 0 105 58.7741 2.77556e-17 90 59.2769 -2.77556e-17 90
54.7862 0 93.75 -28.2547 0 105 29.7297 0 105 -50
-1.11022e-16 97.5 57.3524 0 93.75 51.2831 -1.04083e-16 97.5 58.0002 6.93889e-18
93.75 58.1204 6.93889e-18 93.75 58.7752 -2.77556e-17 93.75 -35.5171 0 105
59.2786 2.77556e-17 93.75 36.9427 -1.11022e-16 105 54.787 1.38778e-17 97.5 0.737054
-1.11022e-16 112.5 -6.51679 2.22045e-16 112.5 7.99012 -1.11022e-16 112.5 57.3524 0
97.5 -13.7644 0 112.5 -42.7695 0 105 57.9998 1.38778e-17 97.5
51.2801 -6.93889e-18 101.25 58.1202 4.85723e-17 97.5 15.239 -1.11022e-16 112.5 58.7741
2.77556e-17 97.5 44.2305 1.11022e-16 105 59.2769 -2.77556e-17 97.5 -20.9926 1.11022e-16
112.5 22.4879 -1.11022e-16 112.5 54.7862 0 101.25 -28.2547 0 112.5
-50 2.22045e-16 105 29.7297 0 112.5 57.3524 0 101.25 58.0002
1.38778e-17 101.25 58.1204 6.93889e-18 101.25 51.2831 2.08167e-17 105 58.7752 -2.77556e-17
101.25 59.2786 2.77556e-17 101.25 -35.5171 -2.22045e-16 112.5 36.9429 1.11022e-16 112.5
54.7871 0 105 57.3524 0 105 57.9998 1.38778e-17 105 0.737101
-1.11022e-16 120 58.1202 4.85723e-17 105 -6.51672 0 120 51.2801 6.93889e-18
108.75 7.99022 -1.11022e-16 120 58.7741 2.77556e-17 105 -42.7695 0 112.5
59.2769 -2.77556e-17 105 -13.7643 -1.11022e-16 120 44.2305 0 112.5 15.239
-1.11022e-16 120 54.7862 -2.77556e-17 108.75 -20.9925 0 120 22.4881 0
120 57.3524 0 108.75 -50 0 112.5 58.0002 6.93889e-18 108.75
[...]
POINT_DATA 3098
FIELD attributes 2
p 1 3098 float
0 0 0 0 0 0 0 0 0 0 0
0 0 0 0 0 0 0 0 0 0
0 0 0 0 0 0 0 0 0 0
0 0 0 0 0 0 0 0 0 0
0 0 0 0 0 0 0 0 0 0
0 0 0 0 0 0 0 0 0 0
0 0 0 0 0 0 0 0 0 0
0 0 0 0 0 0 0 0 0 0
0 0 0 0 0 0 0 0 0 0
0 0 0 0 0 0 0 0 0 0
0 0 0 0 0 0 0 0 0 0
0 0 0 0 0 0 0 0 0 0
0 0 0 0 0 0 0 0 0 0
0 0 0 0 0 0 0 0 0 0
0 0 0 0 0 0 0 0 0 0
0 0 0 0 0 0 0 0 0 0
0 0 0 0 0 0 0 0 0 0
0 0 0 0 0 0 0 0 0 0
0 0 0 0 0 0 0 0 0 0
0 0 0 0 0 0 0 0 0 0
0 0 0 0 0 0 0 0 0 0
0 0 0 0 0 0 0 0 0 0
0 0 0 0 0 0 0 0 0 0
0 0 0 0 0 0 0 0 0 0
0 0 0 0 0 0 0 0 0 0
0 0 0 0 0 0 0 0 0 0
0 0 0 0 0 0 0 0 0 0
0 0 0 0 0 0 0 0 0 0
0 0 0 0 0 0 0 0 0 0
0 0 0 0 0 0 0 0 0 0
0 0 0 0 0 0 0 0 0 0
0 0 0 0 0 0 0 0 0 0
0 0 0 0 0 0 0 0 0 0
0 0 0 0 0 0 0 0 0 0
0 0 0 0 0 0 0 0 0 0
0 0 0 0 0 0 0 0 0 0
0 0 0 0 0 0 0 0 0 0
0 0 0 0 0 0 0 0 0 0
0 0 0 0 0 0 0 0 0 0
0 0 0 0 0 0 0 0 0 0
0 0 0 0 0 0 0 0 0 0
0 0 0 0 0 0 0 0 0 0
0 0 0 0 0 0 0 0 0 0
0 0 0 0 0 0 0 0 0 0
0 0 0 0 0 0 0 0 0 0
0 0 0 0 0 0 0 0 0 0
0 0 0 0 0 0 0 0 0 0
0 0 0 0 0 0 0 0 0 0
0 0 0 0 0 0 0 0 0 0
0 0 0 0 0 0 0 0 0 0
0 0 0 0 0 0 0 0 0 0
0 0 0 0 0 0 0 0 0 0
0 0 0 0 0 0 0 0 0 0
0 0 0 0 0 0 0 0 0 0
0 0 0 0 0 0 0 0 0 0
0 0 0 0 0 0 0 0 0 0
0 0 0 0 0 0 0 0 0 0
0 0 0 0 0 0 0 0 0 0
0 0 0 0 0 0 0 0 0 0
0 0 0 0 0 0 0 0 0 0
0 0 0 0 0 0 0 0 0 0
0 0 0 0 0 0 0 0 0 0
0 0 0 0 0 0 0 0 0 0
0 0 0 0 0 0 0 0 0 0
0 0 0 0 0 0 0 0 0 0
0 0 0 0 0 0 0 0 0 0
0 0 0 0 0 0 0 0 0 0
0 0 0 0 0 0 0 0 0 0
0 0 0 0 0 0 0 0 0 0
0 0 0 0 0 0 0 0 0 0
0 0 0 0 0 0 0 0 0 0
0 0 0 0 0 0 0 0 0 0
0 0 0 0 0 0 0 0 0 0
0 0 0 0 0 0 0 0 0 0
0 0 0 0 0 0 0 0 0 0
0 0 0 0 0 0 0 0 0 0
0 0 0 0 0 0 0 0 0 0
0 0 0 0 0 0 0 0 0 0
0 0 0 0 0 0 0 0 0 0
0 0 0 0 0 0 0 0 0 0
0 0 0 0 0 0 0 0 0 0
0 0 0 0 0 0 0 0 0 0
0 0 0 0 0 0 0 0 0 0
0 0 0 0 0 0 0 0 0 0
0 0 0 0 0 0 0 0 0 0
0 0 0 0 0 0 0 0 0 0
0 0 0 0 0 0 0 0 0 0
0 0 0 0 0 0 0 0 0 0
0 0 0 0 0 0 0 0 0 0
0 0 0 0 0 0 0 0 0 0
0 0 0 0 0 0 0 0 0 0
0 0 0 0 0 0 0 0 0 0
0 0 0 0 0 0 0 0 0 0
0 0 0 0 0 0 0 0 0 0
0 0 0 0 0 0 0 0 0 0
0 0 0 0 0 0 0 0 0 0
0 0 0 0 0 0 0 0 0 0
0 0 0 0 0 0 0 0 0 0
0 0 0 0 0 0 0 0 0 0
0 0 0 0 0 0 0 0 0 0
0 0 0 0 0 0 0 0 0 0
0 0 0 0 0 0 0 0 0 0
0 0 0 0 0 0 0 0 0 0
0 0 0 0 0 0 0 0 0 0
0 0 0 0 0 0 0 0 0 0
0 0 0 0 0 0 0 0 0 0
0 0 0 0 0 0 0 0 0 0
0 0 0 0 0 0 0 0 0 0
0 0 0 0 0 0 0 0 0 0
0 0 0 0 0 0 0 0 0 0
0 0 0 0 0 0 0 0 0 0
0 0 0 0 0 0 0 0 0 0
0 0 0 0 0 0 0 0 0 0
0 0 0 0 0 0 0 0 0 0
0 0 0 0 0 0 0 0 0 0
0 0 0 0 0 0 0 0 0 0
0 0 0 0 0 0 0 0 0 0
0 0 0 0 0 0 0 0 0 0
0 0 0 0 0 0 0 0 0 0
0 0 0 0 0 0 0 0 0 0
0 0 0 0 0 0 0 0 0 0
0 0 0 0 0 0 0 0 0 0
0 0 0 0 0 0 0 0 0 0
0 0 0 0 0 0 0 0 0 0
0 0 0 0 0 0 0 0 0 0
0 0 0 0 0 0 0 0 0 0
0 0 0 0 0 0 0 0 0 0
0 0 0 0 0 0 0 0 0 0
0 0 0 0 0 0 0 0 0 0
0 0 0 0 0 0 0 0 0 0
0 0 0 0 0 0 0 0 0 0
0 0 0 0 0 0 0 0 0 0
0 0 0 0 0 0 0 0 0 0
0 0 0 0 0 0 0 0 0 0
0 0 0 0 0 0 0 0 0 0
0 0 0 0 0 0 0 0 0 0
0 0 0 0 0 0 0 0 0 0
0 0 0 0 0 0 0 0 0 0
0 0 0 0 0 0 0 0 0 0
0 0 0 0 0 0 0 0 0 0
0 0 0 0 0 0 0 0 0 0
0 0 0 0 0 0 0 0 0 0
0 0 0 0 0 0 0 0 0 0
0 0 0 0 0 0 0 0 0 0
0 0 0 0 0 0 0 0 0 0
0 0 0 0 0 0 0 0 0 0
0 0 0 0 0 0 0 0 0 0
0 0 0 0 0 0 0 0 0 0
0 0 0 0 0 0 0 0 0 0
0 0 0 0 0 0 0 0 0 0
0 0 0 0 0 0 0 0 0 0
0 0 0 0 0 0 0 0 0 0
0 0 0 0 0 0 0 0 0 0
0 0 0 0 0 0 0 0 0 0
0 0 0 0 0 0 0 0 0 0
0 0 0 0 0 0 0 0 0 0
0 0 0 0 0 0 0 0 0 0
0 0 0 0 0 0 0 0 0 0
0 0 0 0 0 0 0 0 0 0
0 0 0 0 0 0 0 0 0 0
0 0 0 0 0 0 0 0 0 0
0 0 0 0 0 0 0 0 0 0
0 0 0 0 0 0 0 0 0 0
0 0 0 0 0 0 0 0 0 0
0 0 0 0 0 0 0 0 0 0
0 0 0 0 0 0 0 0 0 0
0 0 0 0 0 0 0 0 0 0
0 0 0 0 0 0 0 0 0 0
0 0 0 0 0 0 0 0 0 0
0 0 0 0 0 0 0 0 0 0
0 0 0 0 0 0 0 0 0 0
0 0 0 0 0 0 0 0 0 0
0 0 0 0 0 0 0 0 0 0
0 0 0 0 0 0 0 0 0 0
0 0 0 0 0 0 0 0 0 0
0 0 0 0 0 0 0 0 0 0
0 0 0 0 0 0 0 0 0 0
0 0 0 0 0 0 0 0 0 0
0 0 0 0 0 0 0 0 0 0
0 0 0 0 0 0 0 0 0 0
0 0 0 0 0 0 0 0 0 0
0 0 0 0 0 0 0 0 0 0
0 0 0 0 0 0 0 0 0 0
0 0 0 0 0 0 0 0 0 0
0 0 0 0 0 0 0 0 0 0
0 0 0 0 0 0 0 0 0 0
0 0 0 0 0 0 0 0 0 0
0 0 0 0 0 0 0 0 0 0
0 0 0 0 0 0 0 0 0 0
0 0 0 0 0 0 0 0 0 0
0 0 0 0 0 0 0 0 0 0
0 0 0 0 0 0 0 0 0 0
0 0 0 0 0 0 0 0 0 0
0 0 0 0 0 0 0 0 0 0
0 0 0 0 0 0 0 0 0 0
0 0 0 0 0 0 0 0 0 0
0 0 0 0 0 0 0 0 0 0
0 0 0 0 0 0 0 0 0 0
0 0 0 0 0 0 0 0 0 0
0 0 0 0 0 0 0 0 0 0
0 0 0 0 0 0 0 0 0 0
0 0 0 0 0 0 0 0 0 0
0 0 0 0 0 0 0 0 0 0
0 0 0 0 0 0 0 0 0 0
0 0 0 0 0 0 0 0 0 0
0 0 0 0 0 0 0 0 0 0
0 0 0 0 0 0 0 0 0 0
0 0 0 0 0 0 0 0 0 0
0 0 0 0 0 0 0 0 0 0
0 0 0 0 0 0 0 0 0 0
0 0 0 0 0 0 0 0 0 0
0 0 0 0 0 0 0 0 0 0
0 0 0 0 0 0 0 0 0 0
0 0 0 0 0 0 0 0 0 0
0 0 0 0 0 0 0 0 0 0
0 0 0 0 0 0 0 0 0 0
0 0 0 0 0 0 0 0 0 0
0 0 0 0 0 0 0 0 0 0
0 0 0 0 0 0 0 0 0 0
0 0 0 0 0 0 0 0 0 0
0 0 0 0 0 0 0 0 0 0
0 0 0 0 0 0 0 0 0 0
0 0 0 0 0 0 0 0 0 0
0 0 0 0 0 0 0 0 0 0
0 0 0 0 0 0 0 0 0 0
0 0 0 0 0 0 0 0 0 0
0 0 0 0 0 0 0 0 0 0
0 0 0 0 0 0 0 0 0 0
0 0 0 0 0 0 0 0 0 0
0 0 0 0 0 0 0 0 0 0
0 0 0 0 0 0 0 0 0 0
0 0 0 0 0 0 0 0 0 0
0 0 0 0 0 0 0 0 0 0
0 0 0 0 0 0 0 0 0 0
0 0 0 0 0 0 0 0 0 0
0 0 0 0 0 0 0 0 0 0
0 0 0 0 0 0 0 0 0 0
0 0 0 0 0 0 0 0 0 0
0 0 0 0 0 0 0 0 0 0
0 0 0 0 0 0 0 0 0 0
0 0 0 0 0 0 0 0 0 0
0 0 0 0 0 0 0 0 0 0
0 0 0 0 0 0 0 0 0 0
0 0 0 0 0 0 0 0 0 0
0 0 0 0 0 0 0 0 0 0
0 0 0 0 0 0 0 0 0 0
0 0 0 0 0 0 0 0 0 0
0 0 0 0 0 0 0 0 0 0
0 0 0 0 0 0 0 0 0 0
0 0 0 0 0 0 0 0 0 0
0 0 0 0 0 0 0 0 0 0
0 0 0 0 0 0 0 0 0 0
0 0 0 0 0 0 0 0 0 0
0 0 0 0 0 0 0 0 0 0
0 0 0 0 0 0 0 0 0 0
0 0 0 0 0 0 0 0 0 0
0 0 0 0 0 0 0 0 0 0
0 0 0 0 0 0 0 0 0 0
0 0 0 0 0 0 0 0 0 0
0 0 0 0 0 0 0 0 0 0
0 0 0 0 0 0 0 0 0 0
0 0 0 0 0 0 0 0 0 0
0 0 0 0 0 0 0 0 0 0
0 0 0 0 0 0 0 0 0 0
0 0 0 0 0 0 0 0 0 0
0 0 0 0 0 0 0 0 0 0
0 0 0 0 0 0 0 0 0 0
0 0 0 0 0 0 0 0 0 0
0 0 0 0 0 0 0 0 0 0
0 0 0 0 0 0 0 0 0 0
0 0 0 0 0 0 0 0 0 0
0 0 0 0 0 0 0 0 0 0
0 0 0 0 0 0 0 0 0 0
0 0 0 0 0 0 0 0 0 0
0 0 0 0 0 0 0 0 0 0
0 0 0 0 0 0 0 0 0 0
0 0 0 0 0 0 0 0 0 0
0 0 0 0 0 0 0 0 0 0
0 0 0 0 0 0 0 0 0 0
0 0 0 0 0 0 0 0 0 0
0 0 0 0 0 0 0 0 0 0
0 0 0 0 0 0 0 0 0 0
0 0 0 0 0 0 0 0 0 0
0 0 0 0 0 0 0 0 0 0
0 0 0 0 0 0 0 0 0 0
0 0 0 0 0 0 0 0 0 0
0 0 0 0 0 0 0 0 0 0
0 0 0 0 0 0 0 0 0 0
0 0 0 0 0 0 0 0 0 0
0 0 0 0 0 0 0 0 0 0
0 0 0 0 0 0 0 0 0 0
0 0 0 0 0 0 0 0 0 0
0 0 0 0 0 0 0 0 0 0
0 0 0 0 0 0 0 0 0 0
0 0 0 0 0 0 0 0 0 0
0 0 0 0 0 0 0 0 0 0
0 0 0 0 0 0 0 0 0 0
0 0 0 0 0 0 0 0 0 0
0 0 0 0 0 0 0 0 0 0
0 0 0 0 0 0 0 0 0 0
0 0 0 0 0 0 0 0 0 0
0 0 0 0 0 0 0 0 0 0
0 0 0 0 0 0 0 0 0 0
0 0 0 0 0 0 0 0 0 0
0 0 0 0 0 0 0 0 0 0
0 0 0 0 0 0 0 0 0 0
0 0 0 0 0 0 0 0 0 0
0 0 0 0 0 0 0 0 0 0
0 0 0 0 0 0 0 0 0 0
0 0 0 0 0 0 0 
U 3 3098 float
3.83503 0.10842 0.00585608 3.83573 0.111874 -0.00288465 3.83478 0.128669 0.0037229 3.81018 0.187108
-0.000657747 3.83376 0.107278 -0.000521129 3.81489 0.176142 -0.00781197 3.85958 0.0609347 -0.000297817
3.8365 0.129973 -0.00227714 3.774 0.218585 -8.55332e-05 3.85913 0.0603223 0.00192952 3.85497
0.0903694 0.000518985 3.77761 0.21961 -0.00304396 3.81355 0.180156 -0.00236083 3.86264 0.0569003
0.00217845 3.86716 0.0165437 -0.000413348 3.77786 0.221502 -0.00179665 3.86581 0.0161958 0.00099799
3.71217 0.281968 0.000356727 3.83582 0.130671 -0.000718358 3.85386 0.0904824 0.000396127 3.71309
0.278664 -0.00206439 3.81383 0.180993 -0.000955508 3.86595 0.0153228 0.00164239 3.86218 0.0565125
0.00106075 3.7107 0.279029 -0.00130321 3.77865 0.222231 -0.000773284 3.86776 -0.0247405 0.000112964
3.86387 -0.0242711 0.00188606 3.61079 0.360706 0.00105872 3.8354 0.130933 -0.000239582 3.61289
0.376353 0.00374156 3.85328 0.0905635 0.000309618 3.86576 0.0149374 0.00142651 3.81379 0.181268
-0.000372028 3.71128 0.279798 -0.000637174 3.86097 -0.0247628 0.00233271 3.8617 0.0563604 0.000717948
3.61236 0.378479 2.2309e-05 3.77885 0.222461 -0.000346112 3.73538 -0.171851 0.000530943 3.86014
-0.0256693 0.00202259 3.73438 -0.161085 0.0042126 3.8653 0.0146622 0.00111993 3.48322 0.543105
-0.00150583 3.6139 0.378916 0.000490071 3.71152 0.279962 -0.00024519 3.83515 0.130991 -1.08894e-05
3.49469 0.540593 -0.0119765 3.85293 0.090548 0.00028797 3.81371 0.181348 -0.000106122 3.73296
-0.155271 0.00428647 3.48221 0.538858 -0.0208635 3.86133 0.0562556 0.000551695 3.77893 0.222529
-0.000126001 3.85947 -0.0261692 0.00161305 3.73182 -0.156892 0.00309002 3.61418 0.3793 0.000155767
3.5762 -0.041486 -0.000725016 3.8649 0.0144874 0.000858298 3.48409 0.540148 -0.00521825 3.58077
-0.0301685 0.00803327 3.71168 0.280154 -4.29785e-05 3.24767 0.751049 -0.00250383 3.19601 0.809776
0.0303109 3.23637 0.819347 0.0188599 3.83499 0.130992 8.6615e-05 3.58283 -0.0174279 0.00778865
3.85272 0.090523 0.000263869 3.81364 0.181364 1.27716e-05 3.73095 -0.157774 0.00226705 3.30013
0.725277 0.00550859 3.85899 -0.0264172 0.00120465 3.86109 0.0561902 0.000437253 3.77893 0.222548
-1.8442e-05 3.48546 0.540249 -0.00050532 3.61425 0.379633 0.000114582 3.14977 0.896578 0.00590957
3.11634 0.904436 -0.00112464 3.58221 -0.0168711 0.00476818 3.12114 0.910079 0.000299957 3.30659
0.725519 0.00248402 3.86463 0.0143771 0.000645007 3.72243 0 21.1109 3.71173 0.280193
2.68248e-06 3.72198 0 21.1084 3.05179 1.22015 0.0110381 3.73045 -0.158094 0.00157925
3.06225 1.25087 -0.017074 3.72176 0 21.1072 3.07243 1.26993 -0.0174492 3.58172
-0.0175862 0.00299755 3.83489 0.130978 0.000118968 3.4856 0.540313 9.29102e-05 3.04031 1.33668
-0.032651 3.85258 0.090496 0.000229816 3.81358 0.181366 6.20621e-05 3.85872 -0.0265739 0.000861091
3.30964 0.726476 0.000903314 3.05206 1.31863 -0.0374457 3.6143 0.3797 7.33376e-05 3.86093
0.0561425 0.00034497 3.05315 1.34521 -0.0221629 3.05341 1.3447 -0.0218258 3.77891 0.222552
3.19243e-05 3.05147 1.351 -0.0217801 3.72194 0 21.1082 2.92667 1.7378 0.00456915
2.90172 1.79051 0.00114456 2.93259 1.74891 0.00748287 3.00976 1.70721 0.00310434 3.06598
1.31678 -0.00604821 2.96207 1.67102 0.00326449 3.86446 0.0143024 0.000480585 2.95063 1.9387
-0.0120234 2.95268 1.94805 -0.0372979 3.58141 -0.0179771 0.00194074 2.95159 1.6584 -0.000881268
2.95365 1.92682 -0.0429929 3.71175 0.280191 2.86065e-05 3.73017 -0.15836 0.00105703 2.95752
1.65474 -0.0015376 3.06113 1.34165 -0.000733539 2.95592 1.72386 0.0225015 2.96401 1.64976
-0.0009597 3.31018 0.726392 0.000373229 3.48566 0.54028 0.000117302 3.72198 0 21.1084
3.11741 2.02953 0.0589235 3.11438 2.0289 -0.13929 3.18829 2.00694 0.0642797 3.23115
2.01442 -0.215546 3.0655 1.94956 -0.384659 1.07509 0.657549 -0.0694034 0.447275 0.274169
0.00923183 3.11251 1.9597 -0.635477 2.97121 1.64656 0.000557991 0 0 0
0 0 0 2.99117 1.95282 0.0867753 0 0 0 2.96631
1.9076 0.0852177 0 0 0 3.0696 1.31675 0.000737023 2.97062 1.85773
0.0761776 3.85857 -0.0266815 0.000612453 0 0 0 3.13053 2.06781 0.0857931
3.01506 1.89705 0.077654 3.83482 0.130964 0.000120628 3.08681 1.95439 0.0746986 3.61433
0.379696 6.17843e-05 0 0 0 3.85249 0.0904735 0.000192359 2.98126 1.82637
0.0362765 3.81354 0.181358 7.6968e-05 3.12861 2.06385 0.0410047 2.97391 1.64607 0.000929936
3.03015 1.89366 0.0318549 3.06157 1.92479 0.0294672 0 0 0 3.0615
1.34109 0.000699101 3.86082 0.0561082 0.000269217 2.98448 1.81517 0.0110164 3.09999 2.05266
0.00857055 3.7789 0.222548 5.18193e-05 3.58118 -0.018205 0.00127374 0 0 0
3.03259 1.88855 0.0095399 3.05662 1.91311 0.00896958 2.97445 1.64563 0.000880857 3.72197
0 21.1084 3.10098 2.05136 0.00370191 2.98606 1.81205 0.00352704 3.31032 0.726348
0.000229947 3.73001 -0.158549 0.000719588 0 0 0 3.06961 1.31663 0.000536238
3.86436 0.0142555 0.000357046 3.03402 1.88675 0.00312323 3.0557 1.90938 0.00297422 3.71175
0.280189 4.22391e-05 3.4857 0.540285 9.74036e-05 2.97442 1.64551 0.000667107 3.0968 2.04688
0.00171594 2.98533 1.81148 0.0013741 0 0 0 3.03241 1.88627 0.00127229
3.05458 1.90927 0.0012344 3.06138 1.3409 0.000371784 3.09965 2.0497 0.000974856 3.85847
-0.0267458 0.000438778 2.97438 1.64534 0.0004719 0 0 0 2.98606 1.81115
0.000695975 3.61435 0.379698 5.64563e-05 3.03363 1.88605 0.000663783 3.05501 1.90847 0.000653551
3.72198 0 21.1084 3.83477 0.13095 0.000108948 3.58103 -0.018374 0.000856607 3.09624
2.04636 0.000598188 3.85242 0.0904546 0.000156456 3.8135 0.181351 7.63589e-05 0 0
0 3.06953 1.31654 0.000286273 2.98518 1.81114 0.000447406 2.9743 1.64532 0.000343802
3.31035 0.726373 0.000153882 3.86075 0.0560821 0.000207978 3.03218 1.88598 0.000430216 3.05432
1.90896 0.000424921 3.77888 0.222543 5.63328e-05 3.09939 2.04947 0.00040159 3.72991 -0.158674
0.000501009 0 0 0 3.48573 0.540285 6.74836e-05 2.98595 1.81099 0.000319109
3.86429 0.0142211 0.000264828 3.06131 1.34086 0.000215385 2.97429 1.64523 0.000268668 3.71175
0.280185 4.47657e-05 3.03349 1.88591 0.000309079 3.05486 1.90832 0.000306039 3.09609 2.04623
0.000292431 0 0 0 3.72198 0 21.1084 2.9851 1.81105 0.000252824
3.85841 -0.0267911 0.000315944 2.97424 1.64528 0.000209419 3.06948 1.31652 0.000164695 3.03209
1.8859 0.000245996 3.05422 1.90888 0.000243819 3.58092 -0.0184576 0.000591231 3.61436 0.379693
4.85441e-05 3.09929 2.04939 0.000234625 0 0 0 3.31037 0.726383 9.10645e-05
3.83474 0.130941 9.21976e-05 2.9859 1.81095 0.000200713 3.85238 0.0904414 0.000124245 3.81348
0.181343 6.78437e-05 3.03342 1.88587 0.000196166 3.0548 1.90828 0.000194771 2.97425 1.6452
0.000158634 3.06127 1.34084 0.00012385 3.86071 0.0560648 0.000158846 3.72985 -0.158757 0.000352899
3.09602 2.04618 0.000189299 3.77886 0.222538 5.19464e-05 0 0 0 3.48572
0.54027 5.11802e-05 2.98507 1.81103 0.000151418 3.86425 0.0141997 0.000195899 3.72198 0
21.1084 3.03205 1.88588 0.000148343 3.71174 0.280182 4.06748e-05 3.05417 1.90886 0.000147294
2.97421 1.64526 0.000118651 3.09924 2.04936 0.000142971 3.06946 1.31651 9.4248e-05 0
0 0 3.58085 -0.0185254 0.000413656 3.85838 -0.0268202 0.000228939 2.98587 1.81094
0.000112071 3.61436 0.379693 3.91915e-05 3.31037 0.726365 6.13625e-05 3.03339 1.88585 0.000109942
3.05477 1.90825 0.00010916 2.97423 1.64519 9.17996e-05 3.09598 2.04616 0.000105721 0
0 0 3.06127 1.34083 7.25108e-05 3.83471 0.130931 7.50938e-05 3.85236 0.0904294
9.69406e-05 3.81346 0.181337 5.69837e-05 3.7298 -0.158821 0.000252192 2.98505 1.81102 8.89694e-05
3.03203 1.88586 8.77279e-05 3.05415 1.90884 8.72539e-05 3.48573 0.540274 3.60339e-05 3.86068
0.0560497 0.000120195 3.77885 0.222531 4.43191e-05 3.09922 2.04934 8.52383e-05 3.72198 0
21.1084 2.97421 1.64525 7.31379e-05 0 0 0 3.06945 1.3165 5.93205e-05
3.86422 0.0141811 0.000144494 3.71173 0.280175 3.4209e-05 2.98587 1.81093 7.29912e-05 3.03338
1.88584 7.22949e-05 3.05475 1.90824 7.20993e-05 3.5808 -0.0185603 0.000294392 3.09597 2.04615
7.14605e-05 2.97423 1.64519 5.82882e-05 0 0 0 3.31037 0.726375 4.02113e-05
3.85836 -0.0268421 0.000166199 3.61435 0.379688 3.0403e-05 3.06126 1.34083 4.78748e-05 2.98505
1.81101 5.68954e-05 3.03202 1.88586 5.63495e-05 3.05415 1.90884 5.61046e-05 3.09921 2.04934
5.50356e-05 3.72978 -0.158858 0.000180844 0 0 0 2.9742 1.64525 4.57269e-05
3.8347 0.130925 5.93455e-05 3.72198 0 21.1084 3.85234 0.0904219 7.46278e-05 3.81345
0.181332 4.6141e-05 3.48572 0.540258 2.63626e-05 3.06944 1.3165 3.90775e-05 3.86066 0.0560396
9.08718e-05 3.77884 0.222528 3.63986e-05 2.98587 1.81093 4.32987e-05 3.03337 1.88584 4.29479e-05
3.05474 1.90824 4.26484e-05 3.09596 2.04615 4.10983e-05 3.8642 0.0141695 0.000107215 0
0 0 3.71172 0.280172 2.78891e-05 2.97422 1.64519 3.83169e-05 3.58076 -0.0185908
0.000210724 3.31037 0.726358 2.78012e-05 3.06125 1.34082 3.30435e-05 3.85834 -0.0268566 0.000121365
2.98504 1.81101 3.72499e-05 3.61435 0.379686 2.40345e-05 3.03201 1.88585 3.66976e-05 3.05413
1.90883 3.64909e-05 3.0992 2.04933 3.56514e-05 0 0 0 2.9742 1.64524
3.35439e-05 3.72198 0 21.1084 3.72975 -0.158893 0.000130391 3.06944 1.31649 2.71568e-05
3.48572 0.540261 1.99336e-05 2.98586 1.81093 3.34456e-05 3.83469 0.130919 4.56614e-05 3.85232
0.0904149 5.64632e-05 3.03337 1.88583 3.26675e-05 3.81344 0.181328 3.61205e-05 3.05474 1.90824
3.25866e-05 3.09595 2.04614 3.25526e-05 3.86065 0.0560322 6.80052e-05 0 0 0
3.77883 0.222524 2.87431e-05 2.97423 1.64518 2.60291e-05 3.58074 -0.0186036 0.000151376 3.86418
0.014161 7.90817e-05 3.71172 0.280169 2.18288e-05 3.31037 0.726367 2.02059e-05 3.06125 1.34082
2.14237e-05 2.98504 1.81101 2.49788e-05 3.03201 1.88585 2.46597e-05 3.05413 1.90883 2.45676e-05
3.0992 2.04933 2.41418e-05 3.85833 -0.0268665 8.81713e-05 0 0 0 3.61434
0.379683 1.86896e-05 2.9742 1.64524 1.92892e-05 3.72198 0 21.1084 2.98586 1.81093
1.76567e-05 3.06943 1.31649 1.84316e-05 3.72974 -0.158908 9.32623e-05 3.03337 1.88583 1.7795e-05
3.05474 1.90824 1.76649e-05 3.48571 0.54025 1.56123e-05 3.09595 2.04614 1.67873e-05 0
0 0 3.83468 0.130916 3.4095e-05 3.85231 0.0904112 4.15998e-05 3.81343 0.181325
2.72128e-05 2.97422 1.64518 1.78136e-05 3.86064 0.0560276 4.94997e-05 3.77882 0.222522 2.16557e-05
3.58072 -0.0186204 0.000107875 2.98504 1.81101 1.74064e-05 3.06125 1.34082 1.65676e-05 3.31037
0.726353 1.42941e-05 3.03201 1.88585 1.71946e-05 3.86418 0.0141557 5.69272e-05 3.05413 1.90883
1.71271e-05 3.71171 0.280168 1.63757e-05 3.09919 2.04933 1.68539e-05 0 0 0
2.97419 1.64524 1.736e-05 3.85833 -0.0268739 6.2985e-05 3.61434 0.379682 1.38751e-05 3.72197
0 21.1084 2.98586 1.81093 1.78351e-05 3.06944 1.31648 1.3928e-05 3.03336 1.88583
1.71695e-05 3.05474 1.90824 1.71641e-05 3.09595 2.04614 1.74859e-05 3.72973 -0.158931 6.61581e-05
0 0 0 3.48572 0.540256 1.10265e-05 2.97422 1.64518 1.36005e-05 3.83467
0.130912 2.43669e-05 3.85231 0.0904064 2.95866e-05 3.81342 0.181322 1.94841e-05 2.98504 1.81101
1.30729e-05 3.86063 0.0560226 3.49361e-05 3.5807 -0.0186258 7.63197e-05 3.03201 1.88585 1.27375e-05
3.06125 1.34082 1.06775e-05 3.05413 1.90883 1.265e-05 3.77882 0.22252 1.55233e-05 3.0992
2.04933 1.23293e-05 3.31037 0.726363 9.94772e-06 0 0 0 3.86417 0.01415
3.984e-05 3.71171 0.280165 1.15725e-05 2.97419 1.64524 9.23901e-06 3.85832 -0.0268795 4.38087e-05
3.72197 0 21.1084 3.61433 0.379679 9.3707e-06 2.98586 1.81092 7.87364e-06 3.03336
1.88583 7.99244e-06 3.05474 1.90823 7.84963e-06 3.06943 1.31649 8.40343e-06 3.09595 2.04614
6.99169e-06 0 0 0 3.72973 -0.158935 4.572e-05 3.48571 0.540247 7.22879e-06
2.97421 1.64518 8.02082e-06 2.98503 1.811 7.7503e-06 3.032 1.88585 7.65499e-06 3.83467
0.13091 1.61986e-05 3.05413 1.90882 7.61991e-06 3.8523 0.0904047 1.99922e-05 3.06125 1.34081
7.01996e-06 3.81342 0.181321 1.26524e-05 3.09919 2.04932 7.47174e-06 3.5807 -0.0186354 5.30495e-05
0 0 0 3.86063 0.0560202 2.38675e-05 3.31037 0.726349 5.8726e-06 3.77881
0.222519 9.82686e-06 2.97419 1.64523 7.76232e-06 3.86417 0.0141473 2.71439e-05 3.7117 0.280164
7.05794e-06 2.98585 1.81092 8.4519e-06 3.72197 0 21.1084 3.03336 1.88583 8.02405e-06
3.85832 -0.0268837 2.94171e-05 3.05473 1.90823 8.07797e-06 3.09595 2.04614 8.56283e-06 3.61433
0.379679 5.23515e-06 3.06944 1.31648 5.04098e-06 0 0 0 2.97422 1.64517
4.761e-06 3.72972 -0.158951 3.03144e-05 3.48572 0.540253 3.39585e-06 2.98503 1.811 4.49049e-06
3.032 1.88585 4.33821e-06 3.05412 1.90883 4.30193e-06 3.09919 2.04933 4.16343e-06 3.06125
1.34081 2.44806e-06 0 0 0 3.58069 -0.0186359 3.57387e-05 3.83466 0.130908
9.30945e-06 3.8523 0.0904026 1.20006e-05 3.81341 0.181319 6.71963e-06 3.31037 0.726359 2.80513e-06
3.86062 0.0560187 1.47658e-05 3.77881 0.222517 4.66383e-06 2.97419 1.64523 1.23156e-06 3.86417
0.0141455 1.69684e-05 3.7117 0.280162 2.83841e-06 2.98585 1.81092 1.55421e-07 3.03336 1.88583
4.20844e-07 3.05473 1.90823 3.17566e-07 3.72197 0 21.1084 3.09594 2.04613 -3.53759e-07
0 0 0 3.06943 1.31649 1.28457e-06 3.85832 -0.026886 1.8184e-05 3.61433
0.379678 1.4752e-06 2.97421 1.64518 1.12811e-06 3.72972 -0.15895 1.83797e-05 3.48571 0.540246
-2.14273e-07 2.98503 1.811 1.11695e-06 3.032 1.88585 1.16789e-06 3.05412 1.90882 1.16409e-06
3.09919 2.04932 1.1549e-06 0 0 0 3.06125 1.34081 1.38189e-06 3.58069
-0.0186427 2.23323e-05 3.31037 0.726348 -1.1861e-06 3.83466 0.130908 3.40059e-06 3.8523 0.0904024
5.06248e-06 3.81341 0.181318 1.72276e-06 2.97419 1.64524 2.4329e-06 3.86062 0.0560182 6.7799e-06
3.77881 0.222516 3.25687e-07 2.98585 1.81092 3.34799e-06 3.86417 0.0141451 8.23287e-06 3.03336
1.88583 3.04072e-06 3.05473 1.90823 3.1079e-06 3.7117 0.280163 -9.25288e-07 3.72197 0
21.1084 3.09594 2.04613 3.63054e-06 0 0 0 3.06944 1.31648 1.26267e-06
3.85832 -0.0268881 9.16018e-06 3.61433 0.379679 -1.98776e-06 2.97422 1.64517 1.37251e-06 3.72972
-0.158962 9.57477e-06 2.98503 1.811 1.16446e-06 3.48571 0.540253 -3.16198e-06 3.032 1.88585
9.20611e-07 3.05412 1.90883 8.75768e-07 3.09919 2.04933 6.82549e-07 0 0 0