# vtk DataFile Version 2.0
sampleSurface
ASCII
DATASET POLYDATA
POINTS 3098 float
0.746192 0 -5.00894e-05 -6.50534 1.11022e-16 -4.7391e-05 0.739507 0 7.49995 7.99812 0
1.94289e-05 -6.5124 -1.11022e-16 7.49992 7.99235 -1.11022e-16 7.50019 -13.7546 0 -1.50031e-05
0.734852 -1.11022e-16 14.9998 15.2496 -1.11022e-16 6.60617e-05 -13.7602 0 7.49982 -6.51784
-1.11022e-16 14.9998 15.2414 -1.11022e-16 7.50009 7.98685 0 14.9998 -13.7648 0
14.9999 -20.9938 0 4.36099e-06 15.2348 -1.11022e-16 14.9998 -20.9936 2.22045e-16 7.49977
22.5022 0 1.49541e-05 0.735071 0 22.4998 -6.51815 -1.11022e-16 22.4999 22.4915
0 7.49989 7.98745 -1.11022e-16 22.4998 -20.9933 -1.11022e-16 14.9999 -13.7652 1.11022e-16
22.4999 22.4829 -1.11022e-16 14.9998 15.2356 0 22.4998 -28.2515 0 2.62893e-05
-28.2534 0 7.50012 29.7556 -1.11022e-16 -4.54549e-05 0.735819 1.11022e-16 29.9999 29.7426
0 7.4992 -6.51767 0 29.9999 -20.9933 -1.11022e-16 22.5 7.98856 0
29.9999 22.4839 1.11022e-16 22.4999 -28.255 0 15 -13.7649 0 30
29.7256 0 14.9997 15.237 0 29.9999 -35.5072 -1.11022e-16 5.90779e-05 -28.2551
0 22.5 -35.5123 1.11022e-16 7.50007 -20.993 1.11022e-16 30 36.9932 0
-7.53554e-05 29.7252 1.11022e-16 22.4999 22.4857 -1.11022e-16 29.9999 0.736256 -1.11022e-16 37.5
37.0663 -1.11022e-16 7.5 -6.5174 0 37.5 7.98913 1.11022e-16 37.5 -35.5169
-2.22045e-16 15 36.9578 0 14.9999 -13.7648 0 37.5 15.2378 0
37.5 -28.255 0 30 -35.5174 0 22.5 29.7273 -1.11022e-16 30
-42.7594 0 0.000106246 -20.9929 1.11022e-16 37.5 36.9398 -3.33067e-16 22.4999 -42.765
0 7.50013 22.4866 -1.11022e-16 37.5 44.3067 1.11022e-16 -0.000173064 44.3156 -5.55112e-17
3.74923 44.3638 -1.11022e-16 7.50044 0.736588 -1.11022e-16 45 -42.7692 2.22045e-16 15.0001
-6.51713 0 45 7.98959 0 45 -35.5174 0 30 44.2537
1.11022e-16 14.9995 -28.2549 0 37.5 -13.7646 -2.22045e-16 45 15.2384 1.11022e-16
45 36.9405 0 30 29.7284 0 37.5 47.8983 5.55112e-17 -0.000231375
47.9106 0 3.74943 -42.7696 1.11022e-16 22.5 48.0131 0 7.50081 44.229
-2.22045e-16 22.4999 -20.9927 -1.11022e-16 45 -50 -1.11022e-16 0.000116555 22.4873 -1.11022e-16
45 -50 -1.11022e-16 7.50012 51.4805 0 -0.000354952 -35.5173 1.11022e-16 37.5
51.6484 5.55112e-17 3.75115 -50 -2.22045e-16 15.0001 51.6711 0 7.50084 -42.7696
0 30 0.736735 -1.11022e-16 52.5 36.9419 0 37.5 51.4953 -1.11022e-16
11.2492 -6.51706 0 52.5 7.98975 0 52.5 -28.2549 0 45
44.2289 -1.11022e-16 30 51.37 -5.55112e-17 14.9994 29.729 -1.11022e-16 45 -13.7646
0 52.5 51.3052 -2.1684e-19 18.7496 51.3048 -2.60209e-18 18.8318 15.2386 -2.22045e-16
52.5 51.3708 -2.38524e-18 18.7496 -50 1.11022e-16 22.5 54.9985 0 -0.00260162
55.0346 0 1.87535 55.1369 0 3.75138 55.3085 5.55112e-17 7.50038 51.2883
-5.55112e-17 22.4998 55.0461 -5.55112e-17 11.249 -20.9927 0 52.5 56.7456 0
0.0299735 56.7783 -2.77556e-17 1.87544 -42.7696 0 37.5 54.8698 0 14.9993
56.8619 2.77556e-17 3.75216 22.4876 1.11022e-16 52.5 -35.5173 -1.11022e-16 45 54.8229
0 17.1162 51.2808 6.93889e-18 26.2499 55.7413 -6.93889e-18 14.9994 54.8037 0
18.7496 44.2298 -1.11022e-16 37.5 36.9422 -2.22045e-16 45 -50 0 30
58.4645 0 -0.244693 58.5154 0 1.88535 58.9168 0 -0.257294 58.9375
1.38778e-17 1.84572 58.8346 1.38778e-17 4.04008 59.1468 -3.46945e-18 1.82581 59.2027 0
-0.270676 59.0815 0 3.9148 54.7907 0 22.4998 59.2532 0 -0.267831
59.2573 0 1.824 58.2324 -1.38778e-17 11.2624 59.254 0 3.02719 58.004
1.38778e-17 12.6256 59.2576 -3.46945e-18 3.82483 51.283 -6.245e-17 30 57.6498 2.77556e-17
14.9995 -28.2548 1.11022e-16 52.5 59.2774 -2.77556e-17 7.62697 58.8187 2.77556e-17 11.263
58.0011 -1.38778e-17 14.9995 0.736891 0 60 58.3071 0 14.9994 29.7293
1.11022e-16 52.5 59.2786 -2.77556e-17 11.2636 -6.5169 0 60 57.4289 2.77556e-17
18.7498 7.98997 -1.11022e-16 60 58.8533 5.55112e-17 14.9994 54.7868 1.249e-16 26.2499
58.0003 -1.38778e-17 18.7498 58.1668 0 18.7498 59.2769 -2.77556e-17 14.9994 51.2799
6.93889e-18 33.75 -13.7644 0 60 57.3667 0 22.4999 58.7945 0
18.7497 15.2389 1.11022e-16 60 -42.7696 -1.11022e-16 45 59.2786 -2.77556e-17 18.7497
57.9997 2.77556e-17 22.4999 58.1285 -6.245e-17 22.4999 54.7871 0 30 -50
0 37.5 58.7775 2.77556e-17 22.4999 57.3544 0 26.25 44.2301 -1.11022e-16
45 -35.5173 -2.22045e-16 52.5 59.2769 0 22.4998 51.283 -6.93889e-18 37.5
-20.9926 1.11022e-16 60 58.0001 0 26.25 58.1216 0 26.25 22.4878
1.11022e-16 60 36.9426 0 52.5 54.7861 -8.32667e-17 33.75 58.7756 0
26.25 57.3526 -1.66533e-16 30 59.2786 0 26.25 57.9997 -2.08167e-17 30
58.1203 2.08167e-17 30 51.28 0 41.25 58.7742 -5.55112e-17 30 -28.2547
0 60 54.7871 0 37.5 59.2769 0 30 57.3525 0
33.75 29.7295 0 60 58.0002 0 33.75 58.1205 -6.93889e-18 33.75
-50 0 45 0.736925 0 67.5 -42.7695 0 52.5 58.7752
-2.77556e-17 33.75 -6.5169 3.33067e-16 67.5 7.98998 -1.11022e-16 67.5 59.2786 2.77556e-17
33.75 51.2831 -3.46945e-17 45 57.3524 5.55112e-17 37.5 54.7862 1.38778e-17 41.25
44.2303 1.11022e-16 52.5 -13.7644 0 67.5 57.9998 0 37.5 58.1202
4.16334e-17 37.5 15.2389 -1.11022e-16 67.5 58.7741 0 37.5 -35.5171 1.11022e-16
60 59.2769 0 37.5 36.9425 0 60 57.3524 -5.55112e-17 41.25
-20.9926 -1.11022e-16 67.5 51.2801 -6.93889e-18 48.75 54.787 0 45 22.4878
2.22045e-16 67.5 58.0002 6.93889e-18 41.25 58.1204 0 41.25 58.7752 -2.77556e-17
41.25 59.2786 -2.77556e-17 41.25 -50 0 52.5 57.3524 0 45
-28.2547 1.11022e-16 67.5 54.7862 -2.77556e-17 48.75 51.2831 -6.245e-17 52.5 57.9998
6.93889e-18 45 58.1202 -6.93889e-18 45 -42.7695 -1.11022e-16 60 29.7296 0
67.5 58.7741 2.77556e-17 45 59.2769 0 45 44.2304 -2.22045e-16 60
0.737014 0 75 57.3524 0 48.75 -6.51679 -1.11022e-16 75 7.99012
-2.22045e-16 75 58.0002 -6.93889e-18 48.75 58.1204 0 48.75 54.787 -1.38778e-17
52.5 51.2801 0 56.25 -13.7644 0 75 -35.5171 -1.11022e-16 67.5
58.7752 2.77556e-17 48.75 15.239 0 75 59.2786 2.77556e-17 48.75 36.9428
2.22045e-16 67.5 57.3524 0 52.5 -20.9926 1.11022e-16 75 -50 -1.11022e-16
60 57.9998 6.93889e-18 52.5 22.4879 0 75 58.1202 -6.93889e-18 52.5
54.7862 -1.38778e-17 56.25 58.7741 2.77556e-17 52.5 51.2831 -1.38778e-17 60 59.2769
-2.77556e-17 52.5 -42.7695 0 67.5 -28.2547 1.11022e-16 75 57.3524 0
56.25 29.7296 0 75 44.2304 -1.11022e-16 67.5 58.0002 2.08167e-17 56.25
58.1204 6.93889e-18 56.25 54.7871 0 60 58.7752 2.77556e-17 56.25 59.2786
2.77556e-17 56.25 51.2801 0 63.75 0.737004 -1.11022e-16 82.5 -6.51683 0
82.5 7.99007 1.11022e-16 82.5 -35.5171 0 75 57.3524 0 60
57.9998 1.38778e-17 60 58.1202 4.85723e-17 60 36.9426 1.11022e-16 75 -13.7644
1.11022e-16 82.5 15.239 -2.22045e-16 82.5 58.7741 2.77556e-17 60 -50 2.22045e-16
67.5 54.7862 -2.77556e-17 63.75 59.2769 -2.77556e-17 60 51.2831 -6.245e-17 67.5
-20.9926 -1.11022e-16 82.5 22.4879 1.11022e-16 82.5 57.3524 0 63.75 58.0002
6.93889e-18 63.75 58.1204 6.93889e-18 63.75 -42.7695 0 75 58.7752 -2.77556e-17
63.75 54.787 0 67.5 59.2786 2.77556e-17 63.75 44.2304 0 75
-28.2547 -1.11022e-16 82.5 29.7297 0 82.5 51.2801 0 71.25 57.3524
0 67.5 57.9998 1.38778e-17 67.5 58.1202 4.85723e-17 67.5 58.7741 2.77556e-17
67.5 -35.5171 0 82.5 59.2769 -2.77556e-17 67.5 54.7862 -6.93889e-17 71.25
0.737067 -1.11022e-16 90 -50 -1.11022e-16 75 -6.51675 -1.11022e-16 90 7.99018
1.11022e-16 90 36.9429 2.22045e-16 82.5 51.2831 1.17961e-16 75 -13.7643 0
90 15.239 -1.11022e-16 90 57.3524 0 71.25 58.0002 6.93889e-18 71.25
58.1204 6.93889e-18 71.25 58.7752 -2.77556e-17 71.25 -20.9925 1.11022e-16 90 59.2786
2.77556e-17 71.25 22.488 1.11022e-16 90 54.7871 0 75 -42.7695 0
82.5 44.2305 0 82.5 51.2801 -6.93889e-18 78.75 -28.2547 -2.22045e-16 90
57.3524 0 75 29.7297 -1.11022e-16 90 57.9998 1.38778e-17 75 58.1202
4.85723e-17 75 58.7741 2.77556e-17 75 59.2769 -2.77556e-17 75 54.7862 0
78.75 -50 0 82.5 -35.5171 1.11022e-16 90 51.2831 -1.80411e-16 82.5
36.9427 1.11022e-16 90 57.3524 0 78.75 0.737038 0 97.5 -6.5168
0 97.5 58.0002 6.93889e-18 78.75 7.9901 -1.11022e-16 97.5 58.1204 6.93889e-18
78.75 58.7752 -2.77556e-17 78.75 -13.7644 2.22045e-16 97.5 59.2786 2.77556e-17 78.75
15.239 0 97.5 54.787 -1.38778e-17 82.5 -42.7695 -1.11022e-16 90 -20.9926
-1.11022e-16 97.5 22.4879 0 97.5 44.2304 1.11022e-16 90 51.2801 0
86.25 57.3524 0 82.5 57.9998 -6.93889e-18 82.5 58.1202 4.85723e-17 82.5
58.7741 2.77556e-17 82.5 -28.2547 0 97.5 59.2769 -2.77556e-17 82.5 29.7297
1.11022e-16 97.5 54.7862 1.38778e-17 86.25 -50 0 90 57.3524 0
86.25 51.2831 -6.93889e-18 90 -35.5171 -1.11022e-16 97.5 58.0002 1.38778e-17 86.25
58.1204 6.93889e-18 86.25 36.9429 2.22045e-16 97.5 58.7752 -2.77556e-17 86.25 59.2786
2.77556e-17 86.25 0.73709 -1.11022e-16 105 -6.51673 0 105 7.9902 -1.11022e-16
105 54.7871 0 90 -13.7643 0 105 15.239 1.11022e-16 105
-42.7695 -1.11022e-16 97.5 57.3524 0 90 51.2801 0 93.75 44.2305
1.11022e-16 97.5 57.9998 1.38778e-17 90 -20.9925 2.22045e-16 105 58.1202 4.85723e-17
90 22.4881 0 105 58.7741 2.77556e-17 90 59.2769 -2.77556e-17 90
54.7862 0 93.75 -28.2547 0 105 29.7297 0 105 -50
-1.11022e-16 97.5 57.3524 0 93.75 51.2831 -1.04083e-16 97.5 58.0002 6.93889e-18
93.75 58.1204 6.93889e-18 93.75 58.7752 -2.77556e-17 93.75 -35.5171 0 105
59.2786 2.77556e-17 93.75 36.9427 -1.11022e-16 105 54.787 1.38778e-17 97.5 0.737054
-1.11022e-16 112.5 -6.51679 2.22045e-16 112.5 7.99012 -1.11022e-16 112.5 57.3524 0
97.5 -13.7644 0 112.5 -42.7695 0 105 57.9998 1.38778e-17 97.5
51.2801 -6.93889e-18 101.25 58.1202 4.85723e-17 97.5 15.239 -1.11022e-16 112.5 58.7741
2.77556e-17 97.5 44.2305 1.11022e-16 105 59.2769 -2.77556e-17 97.5 -20.9926 1.11022e-16
112.5 22.4879 -1.11022e-16 112.5 54.7862 0 101.25 -28.2547 0 112.5
-50 2.22045e-16 105 29.7297 0 112.5 57.3524 0 101.25 58.0002
1.38778e-17 101.25 58.1204 6.93889e-18 101.25 51.2831 2.08167e-17 105 58.7752 -2.77556e-17
101.25 59.2786 2.77556e-17 101.25 -35.5171 -2.22045e-16 112.5 36.9429 1.11022e-16 112.5
54.7871 0 105 57.3524 0 105 57.9998 1.38778e-17 105 0.737101
-1.11022e-16 120 58.1202 4.85723e-17 105 -6.51672 0 120 51.2801 6.93889e-18
108.75 7.99022 -1.11022e-16 120 58.7741 2.77556e-17 105 -42.7695 0 112.5
59.2769 -2.77556e-17 105 -13.7643 -1.11022e-16 120 44.2305 0 112.5 15.239
-1.11022e-16 120 54.7862 -2.77556e-17 108.75 -20.9925 0 120 22.4881 0
120 57.3524 0 108.75 -50 0 112.5 58.0002 6.93889e-18 108.75
[...]
POINT_DATA 3098
FIELD attributes 2
p 1 3098 float
-0.00110927 -0.00432678 0.0546068 0.000562646 0.05338 0.0488378 -0.00665437 0.0239943 0.00554015 0.0547986 0.022847
0.0531606 0.0278479 0.0248086 -0.0119115 0.0294237 0.0564919 0.014006 0.00129899 -0.000265338 0.0625694
0.00206884 0.0266148 -0.00282472 0.0315083 0.00251003 -0.0153007 0.055828 0.03574 -0.00299012 0.0795226
-0.00338716 -0.00351312 -0.00353564 0.0011083 0.0277585 -0.004872 0.0459065 -0.00436373 -0.0179596 -0.00321678
0.0535546 -0.00543173 0.0530696 -0.00831174 -0.00592574 -0.00503006 0.082715 -0.00510282 -0.00559405 0.0270393
0.0708626 -0.00580287 -0.00678426 -0.00572762 -0.00314901 -0.0122484 -0.017721 -0.00614782 -0.0170164 0.0498991
-0.0083311 0.122217 0.0278919 0.0735685 -0.00700293 0.0276334 -0.00703623 -0.00752333 -0.00585412 0.0836106
-0.00648071 -0.00758959 -0.00867536 -0.0183018 -0.0116723 0.170095 0.020087 -0.00311593 0.0428024 -0.0267007
-0.0079536 -0.0165104 -0.0103532 0.0486805 0.182829 -0.00653444 -0.00707477 0.0289418 0.114328 -0.00690263
-0.00766265 -0.0151597 0.250313 -0.00761865 -0.00812087 -0.00823564 -0.0242668 0.0843978 -0.0132548 -0.00799855
-0.0378956 -0.038169 -0.00902716 -0.037796 -0.00340492 0.138683 -0.0506373 -0.0894895 0.128675 -0.0501445
0.298357 -0.00827919 0.137265 -0.0677791 -0.00685683 0.0945131 -0.184347 -0.0104388 -0.00822967 0.0225633
-0.0413693 0.0973715 -0.0324353 -0.0187726 -0.0164073 -0.0083404 0.24334 -0.0804431 0.305528 -0.0386025
-0.240242 -0.0403756 0.325285 -0.247749 -0.0533259 0.326022 -0.0440902 0.338747 -0.178876 0.258106
-0.260596 -0.0316504 0.103265 -0.00847758 0.18739 0.288532 0.0865286 -0.00751722 0.0691921 -0.0128441
0.305453 -0.00740128 -0.0249409 -0.00786594 0.0979765 -0.0416967 -0.0221572 -0.0215293 0.0969947 -0.0248521
-0.00758431 -0.0503244 -0.0223831 -0.00846532 -0.00819492 -0.0238454 -0.0481898 -0.0473128 -0.0331289 -0.00758356
-0.0461206 -0.0404407 -0.0195459 -0.00846113 -0.0453157 -0.0238017 -0.00772269 -0.039251 -0.0386741 -0.00939338
-0.0154877 -0.027105 -0.037321 -0.0334764 -0.0362878 -0.0332179 -0.0328867 -0.0243909 -0.0321111 -0.00781677
-0.0253508 -0.0313106 -0.0284844 -0.010954 -0.0292517 -0.0292295 -0.00850257 -0.00702698 -0.00853206 -0.0294961
-0.00687587 -0.00725666 -0.0292345 -0.0239437 -0.0261445 -0.0255721 -0.017956 -0.00692521 -0.0267689 -0.0267983
-0.00760247 -0.0273963 -0.00776417 -0.0273605 -0.0127023 -0.0258371 -0.00695327 -0.0229132 -0.0249437 -0.00811465
-0.0261683 -0.0261773 -0.0268976 -0.0270007 -0.00886312 -0.0248061 -0.0069414 -0.0234383 -0.0205707 -0.0249613
-0.0249513 -0.00790711 -0.00894743 -0.0256697 -0.0258002 -0.014301 -0.00638808 -0.0231387 -0.00622343 -0.00655412
-0.0231687 -0.0231546 -0.020934 -0.018029 -0.00619839 -0.00680526 -0.0239119 -0.00675869 -0.0241278 -0.00981801
-0.0204094 -0.00614867 -0.0082638 -0.0202614 -0.00703523 -0.0202155 -0.0180634 -0.0208126 -0.0153995 -0.0209655
-0.00692462 -0.00605649 -0.0175078 -0.00745503 -0.0107468 -0.0173275 -0.017279 -0.0153818 -0.017764 -0.017865
-0.0131625 -0.00565238 -0.0054855 -0.00577248 -0.00585033 -0.0148729 -0.0147143 -0.0146775 -0.00778834 -0.00540398
-0.00590028 -0.0151178 -0.00725974 -0.0131312 -0.0152301 -0.0114311 -0.00528288 -0.00606408 -0.0127193 -0.0126021
-0.0125851 -0.00591458 -0.013007 -0.0113494 -0.0131392 -0.00837086 -0.00513406 -0.00630718 -0.010089 -0.0109549
-0.0108348 -0.0108193 -0.0111716 -0.00487596 -0.0112862 -0.0100399 -0.00490338 -0.00620392 -0.00472118 -0.00500949
-0.00639174 -0.0090352 -0.00459969 -0.00510604 -0.00974288 -0.00966778 -0.0096653 -0.00998032 -0.00443906 -0.0100886
-0.00522326 -0.00901645 -0.00488677 -0.00680029 -0.0082768 -0.00425253 -0.00878558 -0.0054017 -0.00873855 -0.00873953
-0.00899515 -0.00908252 -0.00830719 -0.00513897 -0.00396899 -0.00765448 -0.00540684 -0.00818979 -0.00417875 -0.00398903
-0.00821418 -0.00429028 -0.00822863 -0.00846454 -0.00385193 -0.00854592 -0.00438508 -0.00774222 -0.00394805 -0.00366617
-0.00449478 -0.00578645 -0.00721708 -0.0076771 -0.00772689 -0.00774413 -0.00793702 -0.00345121 -0.00800126 -0.00467459
-0.00732243 -0.0041716 -0.00733894 -0.00679398 -0.0031516 -0.00743804 -0.0074621 -0.00470163 -0.00762876 -0.00768
-0.00351718 -0.00333943 -0.00362701 -0.00697323 -0.00319297 -0.00371998 -0.00310745 -0.00703704 -0.00653069 -0.00505336
-0.0071552 -0.00299376 -0.00718142 -0.00382067 -0.00731801 -0.00735819 -0.00671509 -0.00277267 -0.00399044 -0.00330631
-0.00684835 -0.00617793 -0.00699836 -0.00702977 -0.00715018 -0.00246964 -0.00718395 -0.00407141 -0.00643785 -0.00288685
-0.00270394 -0.00299974 -0.00659498 -0.00254871 -0.00240557 -0.00674962 -0.00593979 -0.00678015 -0.0030857 -0.00687435
-0.00442307 -0.00689609 -0.00235811 -0.0031725 -0.00617957 -0.00215042 -0.00257667 -0.00332027 -0.00637947 -0.00654687
-0.00657865 -0.00555774 -0.00665667 -0.00667102 -0.00185847 -0.00346369 -0.0058754 -0.00609478 -0.00626269 -0.00230055
-0.00629279 -0.00212105 -0.00529253 -0.00240788 -0.00634933 -0.00178461 -0.00635369 -0.00196413 -0.00382228 -0.00248875
-0.00558644 -0.00177742 -0.00257693 -0.00584959 -0.0019319 -0.00602852 -0.0015702 -0.00606055 -0.00610957 -0.00271551
-0.00488034 -0.00611222 -0.00523752 -0.00127826 -0.00289543 -0.00551662 -0.00569279 -0.00572424 -0.00576026 -0.00459884
-0.00575845 -0.00119218 -0.00175774 -0.0015838 -0.00186231 -0.00326443 -0.00142374 -0.00194143 -0.00491967 -0.00122964
-0.00203159 -0.00523184 -0.0054158 -0.00544924 -0.00132073 -0.0054839 -0.00548417 -0.00424051 -0.00102089 -0.00215946
-0.00463131 -0.000741724 -0.00235938 -0.00495742 -0.00513575 -0.00516727 -0.00519005 -0.00518636 -0.00404806 -0.000649326
-0.00276241 -0.00125824 -0.00108945 -0.00135781 -0.004414 -0.000929421 -0.00143477 -0.00475406 -0.000735126 -0.00492436
-0.00495323 -0.00152663 -0.000756422 -0.00496331 -0.00495347 -0.00376134 -0.000527868 -0.00164954 -0.00419271 -0.000249811
-0.00453997 -0.00186303 -0.00470547 -0.00473275 -0.00473233 -0.00471861 -0.00354002 -0.000153518 -0.00228335 -0.00393048
-0.000794674 -0.000633515 -0.000894203 -0.000479485 -0.0042888 -0.000972802 -0.00444705 -0.00447157 -0.00446055 -0.000253428
-0.00444118 -0.000291847 -0.00106844 -0.0031735 -8.78177e-05 -0.00118234 -0.0036127 -0.00397775 0.000193305 -0.00413178
-0.00415597 -0.00138743 -0.00414263 -0.00412506 -0.000100644 -0.00654394 -0.00292264 0.00162576 0.00652315 7.53273e-05
0.0051387 -0.00539763 0.000300399 0.00116896 0.00590321 0.0038017 -0.00333688 -0.00180074 0.00483652 0.00107209
0.000312913 -0.00380424 0.000322925 -0.00372161 0.000559806 0.00332523 0.000531755 -0.000370601 0.00505212 0.00502142
-0.00371885 -0.000216997 -0.00102361 -0.000470505 0.00101413 0.00442812 -0.00386811 0.0044182 -0.00389033 -6.60312e-05
-0.0038692 -0.000549862 0.00264672 0.00262968 -0.00235574 -0.00384743 -0.000915121 0.000212317 0.000143534 -0.00245159
0.000911245 0.000908564 9.82425e-05 -0.00261237 0.000116939 -0.00223134 0.00336544 -0.00314735 -0.000647539 -0.00077396
-0.000770403 0.00327154 0.00197085 -0.00302764 -1.74071e-05 -0.00156157 -0.00363545 -0.00206256 -0.00205819 0.000319776
-0.000232963 -0.00306129 0.00208774 0.000680383 -0.000756837 0.00238089 -0.00351407 -0.00286719 -0.00286299 -0.00377963
-0.000678304 -0.00342881 0.00155243 -0.00356025 -0.00358001 0.000541242 -0.00355414 0.000592237 -0.00179212 -0.00367158
-0.00335322 -0.00334905 -0.00353201 -0.000197058 -0.00122466 -0.000956603 -0.000359664 -0.00364269 -0.00061393 0.00133341
-0.00253219 -0.00240047 0.00176395 -0.00352912 -0.0035254 -0.00356262 -0.00160382 0.0012286 -0.00338748 -0.00299467
0.000413797 0.00070169 -0.0023025 -0.00281239 -0.00345787 -0.0034551 -0.00136871 -0.00333118 -0.00056821 -0.00318233
-0.000395143 -0.000861974 -0.00312108 -0.000515302 -0.00273923 -0.00318252 0.000499322 -0.00143633 -0.00330715 -0.00325779
-0.00332467 -0.00325576 0.00104753 1.55902e-05 -0.00328977 -0.0030812 0.000157765 -8.40131e-05 -0.00316476 -0.00326179
0.000840743 -0.00294131 -0.00207375 0.000302188 0.00062954 -0.00286942 -0.000165189 0.000248776 -0.00211452 -0.00302972
-0.00302821 -0.00249257 0.00047948 -0.0028394 -0.00302259 -0.000528656 -0.00295355 -0.000258565 -0.00265103 -0.00125219
-0.00257094 -0.00269228 -0.00280097 -0.0027998 0.000679805 -0.00285718 -0.00284505 -0.000512011 -0.00262651 -0.000361527
-0.000683785 -0.00182208 -0.000548581 -0.0029415 -8.30805e-05 -0.00273229 -0.00306012 -0.00307686 0.000301544 -0.00246079
-0.0030423 -0.00221245 -0.00259514 -0.00259415 -0.00271128 -0.00301659 0.000285292 -0.0026527 0.000944809 -0.00244034
-0.000553474 -4.38052e-05 -0.00266544 -0.0019438 -0.00241618 -0.000563539 -0.00254767 -0.00228542 -0.00241418 -0.00241333
-0.00246955 -0.00255637 -0.00108901 -0.00248046 0.00105559 -0.00237182 -0.0022678 -0.000964356 -0.00153566 -0.00237834
-0.00056793 -0.000674116 -0.000632666 -0.00273924 -0.00212174 -0.00230743 -0.00224513 -0.00224437 -0.00245163 -0.0024173
-0.000405461 -0.00284606 -0.00286068 -0.000163165 -0.00186266 -0.0028206 -0.00279208 -0.00210498 -0.000137471 0.000361067
0.000491326 0.000264443 0.000994672 -0.00223175 -0.00237928 -0.000320768 -0.00205986 0.000629475 -0.00227041 -0.00215389
-0.00171383 0.000182622 -0.00208337 -0.00208265 -0.00197621 -0.000665703 0.000802863 -0.00215017 -0.00195813 9.29247e-05
-0.00227121 -0.00104061 -0.00208744 -0.00216807 -0.00213518 -0.00200002 -0.00138276 -0.00193467 -0.00193392 0.000998573
-0.00184177 -0.00216873 -0.000646828 -0.000746054 -0.00251735 -5.38112e-06 -0.000763973 -0.00261449 -0.00214711 -0.0026276
-0.000664038 -0.0025851 -0.00165352 -0.00182287 -0.000514677 -0.00255691 -0.0019411 -0.00200485 -0.00048648 -0.00214141
0.00125807 -0.00185288 -0.00183416 -0.000597655 -0.00179828 -0.000195072 -0.00179754 -0.00156838 -0.00202768 -0.0017025
-0.000830979 -0.00207683 -0.00179377 -0.00193441 -0.00168434 -0.00186674 -0.00108835 -0.00198229 0.00137247 -0.00172019
-0.0019104 -0.000607142 -0.00166068 -0.00165996 -0.00134359 -0.00198191 -0.0019868 -0.0023205 -0.000729306 -0.00155483
-0.000828931 -0.000880083 -0.00240794 -0.00241869 -0.000853508 -0.00172609 -0.00166475 -0.00236932 -0.0015595 -0.00233694
-0.000759757 -0.00153682 -0.00198349 -0.000740738 -0.00178287 -0.00158764 0.00131972 -0.00188869 0.00066922 -0.00170964
0.000792214 -0.000814967 0.000577337 -0.00151325 -0.00151253 -0.00133662 0.000922083 -0.00140903 -0.00096972 0.000498215
-0.00159808 -0.00194445 -0.00153417 -0.00179154 -0.00139004 0.00108591 -0.00113859 -0.00164856 -0.00177628 -0.0017858
0.000408439 -0.00144084 -0.0013207 -0.00184026 -0.0018736 -0.00136501 -0.00136428 -0.002102 -0.00083764 0.00127185
-0.000940861 -0.00218171 -0.00219193 -0.00101302 -0.00147167 0.000312126 -0.00126629 -0.0010298 -0.00214396 -0.00138965
-0.00148407 -0.00211431 -0.00167275 -0.000962882 -0.00152384 -0.00185569 -0.00124722 -0.000940368 -0.00179081 -0.00129024
-0.0016063 0.0015109 -0.000981956 -0.00119829 0.000126423 -0.00122198 -0.00122126 -0.00182858 -0.00107486 -0.00132963
-0.00154804 -0.00167281 -0.00123653 -0.00111552 -0.00139997 -0.00169873 -0.0011853 -0.00160611 0.00161348 -0.0010978
-0.00114866 -0.00176424 -0.00171586 -0.00131872 -0.000276874 -0.00192775 -0.000949962 -0.00106665 -0.00199942 -0.0020076
-0.00115289 -0.00142394 -0.00107433 -0.00107366 -0.00117892 -0.00195273 -0.00159127 -0.00117282 -0.00143934 -0.00191937
-0.00126118 -0.00109687 -0.00111287 -0.00173781 -0.000959342 -0.00169193 -0.00109391 -0.00154016 0.00156512 -0.00111664
-0.000942402 -0.00100581 -0.000999364 0.000945804 0.00106484 -0.00172383 0.00085685 -0.00146873 -0.0012993 -0.00116628
-0.00160263 0.00118315 -0.00103832 -0.00161142 0.000779078 -0.000919792 -0.000919141 -0.00111244 -0.00123502 -0.000956097
-0.00143863 0.00132209 -0.00080875 -0.00166902 0.000687442 -0.00164297 -0.001335 -0.00174858 -0.00134482 -0.000791021
-0.00181124 -0.00116476 -0.000851103 -0.00181769 -0.00150829 -0.00110134 -0.00122483 0.00148413 -0.00175976 -0.00131467
-0.00142443 -0.00172557 0.000591628 -0.00131866 -0.00166355 -0.000900344 -0.00160345 -0.000972546 -0.00124435 -0.000767289
-0.000766622 -0.000802819 -0.00121595 -0.00150209 0.00169193 -0.0012196 -0.00122167 -0.000665596 -0.000848697 -0.00138212
-0.00165681 0.000413272 -0.00102034 -0.00155499 -0.00124217 -0.00153113 -0.000695491 -0.00064741 -0.0012757 -0.00124111
-0.000748395 -0.000835884 -0.00161376 -0.0015939 -0.000623169 -0.000622515 0.00178406 -0.000644334 -0.00125724 -0.00108377
-0.00134606 -0.00154223 1.42314e-05 -0.00143591 -0.00159892 -0.00160443 -0.000877814 -0.00125515 -0.00137903 -0.000522816
-0.00154612 -0.00146247 -0.0014214 -0.00161305 -0.00151202 -0.00155169 -0.00146121 -0.000553583 -0.00137302 -0.000505768
-0.000685791 -0.00132852 -0.000591341 -0.00148329 -0.0011357 0.00174817 -0.00130983 -0.000937908 -0.00160596 -0.0013133
-0.00064218 -0.000483072 -0.00048246 -0.000504381 -0.00147934 0.00118935 -0.00131452 -0.00151947 -0.0007369 0.00129298
0.00110602 0.00139324 -0.000380336 0.00102977 -0.00132615 -0.00106838 -0.00156814 -0.00118111 -0.000999111 -0.000418157
-0.00155449 0.00150473 -0.000364168 -0.000529772 -0.00138753 -0.00136846 -0.000449806 -0.000792931 0.000937515 -0.00136699
-0.00141821 -0.0014228 -0.00138157 -0.00150107 -0.00136419 -0.00151222 -0.00157549 -0.00142828 -0.000342495 -0.000371046
-0.000341902 -0.00133162 -0.00157712 -0.000588907 -0.00157474 0.00164086 0.000841038 -0.0014826 -0.00106058 -0.00126689
-0.000846361 -0.00142605 -0.00148077 -0.000250172 -0.00156921 -0.00139188 -0.000649091 -0.00144127 -0.000277151 -0.000528315
-0.000388123 0.00183964 -0.000318688 -0.000233512 -0.0013774 -0.0015055 0.000668115 -0.000435977 -0.00137957 -0.000924873
-0.00113591 -0.000231104 -0.00152868 -0.000919393 -0.000211189 -0.000210588 -0.000697317 -0.00153368 -0.00134673 -0.0014059
0.00194339 -0.0012086 0.000278184 -0.000497218 -0.00125291 -0.00125621 -0.000132658 -0.00149992 -0.00161431 -0.00119483
-0.00147716 -0.00144649 -0.000257945 -0.00155525 -0.00168107 -0.000142013 -0.0011607 -0.00167972 -0.000179651 -0.00100745
-0.000765915 -0.000116255 -0.00157924 -0.00122704 -0.000290026 -0.0014924 -0.00150584 -0.000554276 -9.26785e-05 -0.00154827
0.00192236 -9.43147e-05 -9.37394e-05 -0.00146176 -0.00141079 -0.000367011 -0.00151919 -0.000340666 -0.00143524 -0.000865758
-0.0010977 0.00140254 0.00147708 -0.000609135 0.00133159 -0.00150749 -0.000120173 -0.00142812 -1.4917e-05 -0.000781537
-2.6333e-05 -0.00154488 0.0015616 -4.1388e-05 -0.00131318 0.00125735 -0.000398385 -0.00144733 -0.000154089 3.18135e-07
-0.00105767 0.00167145 -0.00109461 0.00116587 -0.00109652 -0.0014561 2.17722e-05 -0.00155925 -0.00148188 -0.00157015
-0.00103331 -0.00096285 -0.00167129 2.07609e-05 -0.000703597 2.12932e-05 -0.00172804 -0.000998843 -0.000191595 -0.00172694
-0.00118703 -0.000463051 0.0018044 -0.00161795 -0.00152419 0.00106629 -0.0015251 1.84792e-05 -0.00155249 -0.00138972
8.94743e-05 -0.000230976 -0.00148271 8.28463e-05 7.49208e-05 -1.68454e-05 -0.000263083 -0.00155146 -0.000808792 0.00200611
-0.00145231 0.000104222 -0.000539239 -0.00105438 0.000891645 -0.00151715 0.000127794 -0.00143982 -5.18688e-05 -0.000304881
-0.00129032 -0.000634972 -0.00157647 0.000124124 0.000124644 -0.00145133 0.00211994 -0.000898691 -0.0014632 0.000135464
-7.52282e-05 -0.000639115 -0.000928808 -0.000929219 -0.00158711 -0.00091685 0.000501726 -0.00149673 -0.000862087 -0.000381103
0.000176364 0.000160408 0.000120462 -0.000824919 0.000184347 -0.00115942 -0.00154581 0.000174808 -0.000128765 -0.00157897
8.94607e-05 -0.00138968 0.000227173 0.00210655 -0.000753234 -0.000470261 0.000194129 0.000194629 -0.00157265 -9.79284e-05
-0.00101848 6.38041e-05 -0.00021459 -0.00154261 0.000232773 -0.00128574 -0.00159468 0.000237395 0.00159236 -0.000496249
0.000271923 0.00165823 0.00153606 0.000256131 0.000222292 3.61364e-05 0.00174561 0.00147079 0.00022943 -0.000567367
-0.00148505 -0.000872224 -0.000753894 -0.000301776 0.000235302 -0.00161248 -0.000779549 -0.000779167 0.00185999 -0.00115185
0.000301008 -0.000712539 -0.00172286 0.00138245 -0.000677024 -0.00174885 -3.46336e-05 0.000207341 0.000252531 0.000252959
-0.00159702 -0.00140521 -0.00160908 0.00199374 0.000323713 0.00128097 -0.000700825 0.000328559 -0.000387019 0.000177768
-0.00148733 -0.000999694 0.000345814 -0.000120787 0.000312013 -1.11506e-05 0.00029266 0.000344081 -0.00156716 0.00218569
-0.00129433 0.00110205 0.0001366 0.000304223 -0.00146017 0.000351789 0.000355139 -0.000373255 -0.000501983 -0.00083712
-0.000212263 -0.00150375 0.000319795 0.00032019 -0.000618721 0.000398368 0.000321412 -0.00114962 0.00229361 6.79247e-05
-0.000636949 -0.00063511 0.000411433 -0.00153435 -0.000564679 0.000725332 -0.000526494 0.000402598 0.000428212 -0.00142339
0.000374171 0.0002885 0.000370808 -0.000653718 -0.000305341 0.000468353 -0.000983992 -1.90154e-05 0.000381578 0.00228316
-0.00164555 0.000414313 0.000132794 0.000243076 -0.00131164 0.000468443 0.000396188 0.000396569 0.000456761 0.000484893
-0.00044634 -0.000117715 -0.000252606 -0.000806458 0.000437565 0.000508051 0.00178212 0.000457861 0.00186275 0.00172709
0.000187601 -0.00115147 0.000447342 -0.00170789 0.00195889 -0.000485404 0.000550826 0.00167479 0.000429321 -0.000497473
-0.000494627 -0.000423865 0.000402833 -0.00185315 -0.000386415 -0.00178803 0.00206898 -0.00170387 0.000439842 0.00159054
0.000589276 -0.000234737 0.000484041 -0.000608765 -0.00160186 -0.00146493 8.61283e-05 -0.000974368 -0.00137522 0.000508931
0.000454058 0.000454421 0.00219652 0.000547114 0.000585542 0.00148414 0.000373592 -0.00138835 0.00058373 -0.00166885
0.000230982 -0.00140584 0.000523774 0.000631231 -0.000385799 0.000561227 -2.65589e-05 0.00237093 0.000505357 -0.000785787
-0.00138098 0.0013041 0.000468285 0.000307362 -0.000114167 0.000671927 -0.00138546 0.000478362 0.000542692 0.000539529
-0.000334631 0.000706784 -0.000341194 -0.000337345 -0.00148393 0.00246933 0.000570205 -0.000157758 0.000600141 -0.000264362
0.000492155 0.000492506 -0.000583305 -0.00181698 -0.000225342 0.000936089 -0.00170511 -0.0014902 0.000191524 -0.00161532
0.000646061 -0.00151659 0.000712366 -0.00157918 -0.00137854 0.000710123 0.000508809 0.000580707 -0.00130495 0.000542888
0.00074963 -0.00161955 -0.00132246 0.00246414 0.000513484 0.000704986 -0.000337332 6.88657e-05 0.000383232 -0.00135458
0.000788319 0.000422512 0.000579244 -0.00163629 0.000522647 -0.00133693 0.000653954 0.000625418 1.19054e-05 0.000830167
-0.00116875 0.000685649 0.000696884 -0.00136064 0.000535252 0.000535569 -0.00167559 0.0019835 0.000770965 0.00207657
0.00191391 -0.000203622 -9.83191e-05 0.000305032 0.000617988 -0.0014622 -0.000207165 -0.000202887 0.00217509 0.000828558
0.0018575 -0.000131545 0.000857761 -9.49436e-05 -0.00174604 0.000637834 -0.00158468 -0.0016743 0.000580064 -0.00149125
0.00228297 -0.00156953 -0.00141583 0.00086174 0.00177536 0.000559478 -0.00128736 -0.00122185 0.000854114 0.000613252
0.000908468 -0.00160967 0.000568456 0.00240411 0.000148007 -0.00162312 -0.00124862 0.000700732 0.00167093 0.00066216
0.000552423 0.000747213 -0.000731604 0.000453564 -0.00130143 0.000813641 0.000580959 0.000581277 -0.00162103 0.000972874
0.000828335 -0.00130203 0.000890977 0.00256032 -0.00153476 0.000647271 0.0014878 0.000116498 0.000936075 -0.00133958
-0.00163276 0.000387173 0.000624788 0.00100355 -8.67264e-05 0.000780783 0.000981842 -0.00144709 -8.35047e-05 -7.80785e-05
-0.00143076 0.000589993 0.00264755 -3.97592e-06 3.45323e-05 -0.00161571 0.000656401 0.00112621 0.000599017 0.000736066
0.00099986 -0.00156405 0.000787649 0.000686823 0.00104887 0.000859378 -0.00126189 0.000927906 -0.000192416 0.000611439
0.000611746 0.000662411 -0.00155686 -0.00159178 0.000997278 0.00111875 0.00264438 0.000686563 0.000978797 0.000570923
-0.00159628 0.00105468 0.00065644 -0.00146134 -0.00104073 0.00114643 0.000214063 0.00060811 0.0011243 -0.00155925
0.000894821 0.0006891 0.000759889 0.000816564 0.000616429 0.000896291 0.000721525 2.45604e-05 -0.00133096 0.00218447
0.00228668 3.31453e-05 3.94232e-05 0.000964238 0.00209507 0.00115637 -0.000789292 0.0011977 0.000113633 -0.00152377