/*--------------------------------*- C++ -*----------------------------------*\
  =========                 |
  \\      /  F ield         | OpenFOAM: The Open Source CFD Toolbox
   \\    /   O peration     | Website:  https://openfoam.org
    \\  /    A nd           | Version:  10
     \\/     M anipulation  |
\*---------------------------------------------------------------------------*/
FoamFile
{
    format      ascii;
    class       volScalarField;
    location    "2000";
    object      k;
}
// * * * * * * * * * * * * * * * * * * * * * * * * * * * * * * * * * * * * * //

dimensions      [0 2 -2 0 0 0 0];

internalField   nonuniform List<scalar> 
52338
(
0.52859
0.503438
0.420148
0.361162
0.319932
0.306783
0.865073
0.600184
0.469413
0.410123
0.373128
0.340695
0.300083
0.258809
0.187889
0.17289
0.148264
0.138653
0.13081
0.150312
1.02107
0.670289
0.545342
0.481112
0.436682
0.395624
0.357115
0.323994
0.227097
0.190791
0.180558
0.176272
0.189071
0.183525
0.159227
1.06684
0.742303
0.611667
0.540795
0.490661
0.446559
0.404633
0.35952
0.342192
0.339008
0.245926
0.227126
0.224672
0.215503
0.213113
0.214054
0.217778
0.161007
1.10908
0.805384
0.67296
0.597504
0.543352
0.496906
0.454617
0.419389
0.375863
0.347636
0.30229
0.277204
0.264474
0.261772
0.251583
0.240508
0.234541
0.2316
0.225674
0.150202
1.14972
0.861558
0.728666
0.650037
0.593018
0.545029
0.502626
0.465491
0.429819
0.393425
0.356846
0.326252
0.303978
0.292622
0.277379
0.262802
0.252425
0.244083
0.229558
0.138558
1.18884
0.912112
0.779109
0.698189
0.639059
0.590092
0.547955
0.510115
0.473341
0.436179
0.399259
0.366178
0.3399
0.320069
0.300342
0.28206
0.266994
0.253108
0.231851
0.129878
1.2252
0.957664
0.824657
0.741999
0.681271
0.631491
0.58918
0.550885
0.513705
0.475957
0.437926
0.401597
0.370845
0.344457
0.320706
0.298418
0.27877
0.259671
0.23333
0.123005
1.25765
0.998485
0.86561
0.781567
0.719559
0.669148
0.626324
0.587403
0.549635
0.511087
0.471653
0.432532
0.397641
0.366407
0.3384
0.312169
0.288253
0.264604
0.234832
0.119627
1.2858
1.03477
0.902195
0.816992
0.75389
0.702767
0.659226
0.619495
0.58085
0.54131
0.500401
0.458897
0.420538
0.385413
0.353504
0.323622
0.295874
0.268431
0.236494
0.119437
1.3099
1.06673
0.934587
0.848358
0.784275
0.732404
0.687979
0.647285
0.607631
0.567042
0.524697
0.481461
0.440066
0.401467
0.366199
0.333074
0.301983
0.271433
0.238079
0.120179
1.33048
1.0946
0.962915
0.875727
0.810749
0.758216
0.712744
0.671189
0.63063
0.589051
0.545368
0.500497
0.456338
0.414888
0.376725
0.340799
0.306849
0.273776
0.239426
0.121055
1.34812
1.11858
0.987232
0.899186
0.833398
0.780086
0.733982
0.691568
0.650144
0.607616
0.562725
0.516191
0.469879
0.42599
0.385328
0.347029
0.310678
0.27556
0.240438
0.121745
1.36331
1.13884
1.00783
0.918896
0.852441
0.798295
0.751534
0.708438
0.666264
0.622873
0.576939
0.529016
0.480928
0.435001
0.392265
0.351873
0.313622
0.276841
0.24102
0.122012
1.37633
1.15541
1.02441
0.934665
0.867514
0.812847
0.765514
0.721861
0.679065
0.634936
0.58815
0.539117
0.489613
0.442065
0.397536
0.355738
0.315801
0.27766
0.241075
0.121631
1.3872
1.16823
1.037
0.946533
0.878784
0.823692
0.775944
0.731878
0.688602
0.643894
0.596478
0.546609
0.496044
0.447286
0.401516
0.358463
0.317319
0.278074
0.240497
0.120374
1.39555
1.17706
1.04552
0.95448
0.886275
0.830856
0.782856
0.738525
0.694926
0.649859
0.601982
0.551576
0.500299
0.450739
0.404138
0.360237
0.318263
0.278175
0.239341
0.118221
1.40046
1.18163
1.04983
0.958464
0.889999
0.834397
0.786275
0.741824
0.698087
0.652803
0.604737
0.554068
0.502432
0.452471
0.405453
0.36112
0.318716
0.278126
0.238017
0.115981
0.536041
0.485266
0.402858
0.344872
0.300404
0.279355
0.869284
0.60362
0.471986
0.411725
0.374589
0.341197
0.301386
0.22531
0.187951
0.172903
0.148271
0.138629
0.130735
0.150443
1.02213
0.670543
0.545633
0.481264
0.436768
0.396352
0.357495
0.32222
0.22607
0.190871
0.180496
0.176158
0.188989
0.183466
0.159981
1.06681
0.742682
0.612008
0.541061
0.490891
0.447201
0.405573
0.365197
0.338168
0.306515
0.24219
0.233464
0.224501
0.215421
0.213038
0.213991
0.217673
0.160625
1.10911
0.805663
0.673232
0.597736
0.543574
0.497524
0.455507
0.419867
0.377585
0.347295
0.303292
0.278429
0.270364
0.262641
0.251463
0.240438
0.234494
0.231567
0.225519
0.147422
1.14979
0.861783
0.728896
0.650241
0.593221
0.545551
0.503412
0.465942
0.429938
0.393477
0.357202
0.327471
0.305984
0.293161
0.277249
0.262747
0.252395
0.244072
0.229402
0.135721
1.18892
0.912305
0.779309
0.69837
0.639247
0.590415
0.548312
0.510329
0.473533
0.4364
0.399736
0.366979
0.340941
0.320995
0.30063
0.282029
0.266977
0.253112
0.231713
0.127109
1.22527
0.957832
0.824831
0.74216
0.681443
0.63181
0.589504
0.551052
0.513874
0.476162
0.438337
0.402258
0.371576
0.345212
0.32106
0.298409
0.278761
0.259693
0.233214
0.120613
1.2577
0.998629
0.865761
0.781705
0.719707
0.669379
0.626579
0.58754
0.549775
0.51126
0.471972
0.433058
0.397967
0.366653
0.338656
0.312167
0.28825
0.264628
0.234711
0.117412
1.28585
1.03489
0.902322
0.817106
0.754012
0.702961
0.659442
0.619609
0.580964
0.541448
0.500638
0.459491
0.420937
0.385515
0.353666
0.323621
0.295876
0.268456
0.236354
0.117181
1.30993
1.06683
0.934689
0.84845
0.784373
0.732547
0.688119
0.647378
0.607727
0.567147
0.524863
0.481605
0.44024
0.401469
0.366284
0.333072
0.301986
0.271458
0.237932
0.117954
1.3305
1.09467
0.962995
0.875808
0.810837
0.75828
0.712852
0.671258
0.630708
0.589129
0.545485
0.500637
0.456362
0.414815
0.376737
0.340787
0.306854
0.273803
0.23928
0.118884
1.34813
1.11864
0.987337
0.899266
0.833502
0.78014
0.734014
0.691614
0.650203
0.607673
0.562802
0.516283
0.469869
0.425874
0.385273
0.346992
0.31068
0.275587
0.240293
0.119629
1.36332
1.13888
1.00785
0.91892
0.852469
0.798353
0.75156
0.708476
0.666308
0.622912
0.576986
0.529066
0.480902
0.434863
0.392162
0.351865
0.313622
0.276867
0.240876
0.119962
1.37634
1.15544
1.02442
0.934682
0.867549
0.812892
0.765534
0.721889
0.679093
0.63496
0.588176
0.539138
0.489582
0.44193
0.397434
0.355708
0.315806
0.277687
0.240931
0.119664
1.38721
1.16823
1.03701
0.946543
0.878801
0.823716
0.775958
0.731895
0.688617
0.643913
0.596484
0.546613
0.496013
0.447173
0.401415
0.358443
0.317326
0.278101
0.24036
0.118523
1.39555
1.17706
1.04552
0.954483
0.886283
0.830865
0.782863
0.738532
0.694934
0.649854
0.601984
0.55157
0.500275
0.45066
0.404066
0.360226
0.318272
0.278204
0.239197
0.116543
1.40046
1.18161
1.04983
0.958462
0.889997
0.834398
0.786275
0.741824
0.698081
0.652801
0.604732
0.55406
0.502417
0.45243
0.405418
0.361118
0.318724
0.278151
0.237914
0.114506
0.529012
0.466066
0.386866
0.335028
0.296774
0.27615
0.869888
0.602356
0.470909
0.410225
0.373266
0.339005
0.294898
0.198022
0.187999
0.172912
0.14826
0.138604
0.130709
0.150812
1.02266
0.670391
0.545532
0.481107
0.436576
0.396212
0.356818
0.313228
0.213627
0.190844
0.180451
0.176084
0.188948
0.183437
0.162045
1.06669
0.742677
0.611994
0.540995
0.49079
0.447111
0.405444
0.363554
0.330275
0.307819
0.23879
0.232639
0.224382
0.215371
0.212988
0.21396
0.217649
0.162241
1.109
0.805623
0.673191
0.597667
0.54348
0.497463
0.455442
0.41974
0.37672
0.345007
0.300113
0.276364
0.269525
0.262515
0.251402
0.240394
0.234459
0.231546
0.225425
0.147967
1.14972
0.861728
0.72885
0.650174
0.593133
0.545505
0.503389
0.46591
0.429793
0.393191
0.356832
0.327431
0.306137
0.292912
0.277184
0.262708
0.252369
0.244062
0.229292
0.135832
1.18886
0.912257
0.779267
0.698314
0.639179
0.590412
0.548265
0.510288
0.473503
0.436352
0.399687
0.366892
0.340918
0.320706
0.300533
0.282002
0.266959
0.253114
0.231611
0.127056
1.22523
0.957794
0.8248
0.742117
0.681398
0.631808
0.589437
0.551015
0.513854
0.47615
0.438349
0.402234
0.371576
0.345182
0.320966
0.298398
0.27875
0.259702
0.233129
0.120534
1.25768
0.998603
0.86574
0.781674
0.719676
0.669376
0.626526
0.587511
0.549754
0.511253
0.471989
0.433045
0.398006
0.366633
0.338572
0.312164
0.288245
0.26464
0.234618
0.117336
1.28583
1.03487
0.90231
0.817086
0.753993
0.702972
0.659414
0.619586
0.580948
0.541443
0.500646
0.459439
0.420871
0.385528
0.353584
0.323621
0.295875
0.268469
0.236249
0.117004
1.30993
1.06681
0.934683
0.848438
0.784364
0.732578
0.688115
0.647364
0.607719
0.567144
0.524869
0.481705
0.440216
0.401477
0.366207
0.333073
0.301989
0.271472
0.23782
0.117746
1.3305
1.09466
0.962997
0.875809
0.810842
0.758274
0.712861
0.671256
0.630706
0.589128
0.545494
0.500627
0.456339
0.414816
0.376668
0.340783
0.306858
0.273819
0.239166
0.118673
1.34814
1.11863
0.987357
0.89928
0.833524
0.780137
0.734005
0.691611
0.650206
0.607674
0.562811
0.51629
0.469847
0.425875
0.385211
0.34697
0.310682
0.275604
0.24018
0.119421
1.36333
1.13887
1.00785
0.918918
0.852464
0.798351
0.751552
0.708475
0.666313
0.622914
0.576994
0.529075
0.480883
0.434862
0.392073
0.351866
0.313623
0.276885
0.240765
0.119756
1.37635
1.15543
1.02442
0.934679
0.867558
0.812886
0.765529
0.721889
0.679096
0.634963
0.588183
0.539146
0.489568
0.441928
0.397411
0.35567
0.315809
0.277705
0.240822
0.119462
1.38722
1.16823
1.03701
0.94654
0.878807
0.823709
0.775956
0.731896
0.688619
0.643917
0.596488
0.546618
0.496004
0.447171
0.401393
0.358421
0.317332
0.278116
0.240265
0.118338
1.39557
1.17705
1.04552
0.95448
0.886281
0.830863
0.782862
0.738533
0.694935
0.649851
0.601987
0.551572
0.50027
0.450657
0.40405
0.360215
0.31828
0.278217
0.239116
0.116378
1.40047
1.1816
1.04982
0.958458
0.889994
0.834395
0.786273
0.741822
0.698077
0.652798
0.604731
0.554059
0.502414
0.452429
0.405413
0.361118
0.318732
0.278164
0.237885
0.114233
0.523995
0.457682
0.379482
0.332264
0.306543
0.284526
0.869644
0.600923
0.469491
0.408483
0.371706
0.33681
0.289705
0.18593
0.188069
0.172922
0.148237
0.138576
0.130713
0.151158
1.02305
0.670196
0.545372
0.480926
0.436381
0.395987
0.356079
0.305311
0.209959
0.19074
0.180428
0.176047
0.188927
0.183435
0.163839
1.06665
0.742675
0.611984
0.540949
0.490723
0.447044
0.405259
0.3619
0.325156
0.319032
0.236088
0.231996
0.224295
0.215338
0.212956
0.21395
0.217712
0.164356
1.10892
0.805602
0.673169
0.597622
0.54342
0.497433
0.455394
0.419533
0.375686
0.342923
0.297682
0.274059
0.26877
0.262327
0.251365
0.240371
0.234438
0.231534
0.225449
0.150106
1.14966
0.861691
0.728817
0.650125
0.593073
0.545483
0.503378
0.465887
0.429605
0.392833
0.356398
0.32727
0.306183
0.292736
0.277145
0.262686
0.252349
0.244052
0.22929
0.137411
1.18883
0.912219
0.779234
0.698268
0.639129
0.590409
0.548235
0.510271
0.473472
0.436288
0.399613
0.366817
0.340953
0.320552
0.300465
0.281986
0.266944
0.25311
0.231596
0.128335
1.2252
0.957764
0.824775
0.74208
0.681362
0.631807
0.589393
0.550994
0.513842
0.47614
0.438351
0.402207
0.371628
0.345186
0.320898
0.298388
0.278741
0.2597
0.233124
0.121644
1.25767
0.998581
0.865722
0.781648
0.719651
0.669375
0.626485
0.58749
0.549743
0.511254
0.472001
0.433022
0.398053
0.366668
0.338511
0.31216
0.28824
0.264639
0.234616
0.118377
1.28583
1.03486
0.902299
0.817068
0.753977
0.702979
0.659391
0.619568
0.580938
0.541443
0.500653
0.459408
0.420845
0.385579
0.353528
0.32362
0.295873
0.268468
0.236232
0.117923
1.30993
1.0668
0.934679
0.848429
0.784358
0.732594
0.68811
0.647353
0.607713
0.567144
0.524874
0.481743
0.440204
0.401521
0.366157
0.333072
0.301989
0.271473
0.237798
0.118604
1.33051
1.09465
0.963
0.87581
0.810846
0.758274
0.712864
0.671253
0.630705
0.58913
0.545499
0.500629
0.456331
0.414852
0.376628
0.340779
0.306858
0.27382
0.239144
0.119498
1.34815
1.11863
0.987368
0.899289
0.833536
0.780135
0.733999
0.691609
0.650208
0.607676
0.562818
0.516294
0.469841
0.425908
0.385179
0.346958
0.310682
0.275606
0.24016
0.120216
1.36334
1.13887
1.00785
0.918919
0.852465
0.798348
0.751545
0.708475
0.666317
0.622917
0.577001
0.529081
0.480878
0.43489
0.392039
0.351859
0.313622
0.276888
0.240747
0.120518
1.37637
1.15543
1.02442
0.934678
0.867561
0.81288
0.765524
0.72189
0.679099
0.634966
0.588189
0.539151
0.489564
0.441949
0.397405
0.35565
0.31581
0.277708
0.240804
0.120181
1.38724
1.16822
1.03701
0.946538
0.878809
0.823704
0.775953
0.731897
0.688621
0.64392
0.596491
0.546622
0.496002
0.447185
0.401392
0.358406
0.317334
0.278118
0.240248
0.119004
1.39559
1.17705
1.04551
0.954478
0.88628
0.83086
0.782861
0.738533
0.694936
0.64985
0.601988
0.551574
0.500269
0.450666
0.404049
0.360208
0.318283
0.278217
0.239115
0.11698
1.40049
1.18159
1.04981
0.958455
0.889992
0.834393
0.786272
0.741821
0.698074
0.652796
0.60473
0.554058
0.502412
0.452434
0.405414
0.361117
0.318735
0.278162
0.23793
0.114663
0.521712
0.457701
0.378965
0.334323
0.31855
0.294818
0.868882
0.599418
0.467972
0.40683
0.370174
0.334883
0.285761
0.184468
0.188142
0.17294
0.148215
0.138549
0.130725
0.151258
1.02332
0.669953
0.54516
0.480711
0.436164
0.395688
0.355279
0.299099
0.210455
0.190595
0.180415
0.17603
0.188914
0.183447
0.157876
1.06665
0.742674
0.611977
0.540916
0.490683
0.446988
0.405039
0.360265
0.322984
0.330014
0.235038
0.231516
0.224226
0.215315
0.212936
0.213947
0.217794
0.156757
1.10887
0.805603
0.673171
0.597604
0.543396
0.497435
0.455356
0.419257
0.374642
0.341332
0.296217
0.272125
0.268088
0.262112
0.251332
0.240358
0.234426
0.231529
0.225559
0.152179
1.14962
0.861676
0.728807
0.650102
0.593047
0.545497
0.50339
0.465858
0.429378
0.392438
0.355952
0.327024
0.306127
0.292574
0.277113
0.262672
0.252336
0.244044
0.22938
0.139231
1.1888
0.9122
0.77922
0.698244
0.639106
0.590428
0.548235
0.510271
0.473435
0.436208
0.399526
0.366742
0.340974
0.320442
0.300411
0.281974
0.266934
0.253103
0.231657
0.12981
1.22519
0.957747
0.824762
0.74206
0.681345
0.631822
0.589377
0.550992
0.51384
0.476136
0.438353
0.402189
0.371678
0.345187
0.320844
0.29838
0.278732
0.25969
0.233193
0.12295
1.25766
0.998569
0.865714
0.781632
0.719639
0.669386
0.626467
0.587484
0.549744
0.511263
0.472021
0.433012
0.398093
0.366703
0.338465
0.312154
0.288233
0.264631
0.234672
0.119625
1.28583
1.03485
0.902295
0.817059
0.753972
0.702993
0.659381
0.619562
0.580939
0.541451
0.50067
0.459399
0.42084
0.385623
0.353486
0.323615
0.295868
0.26846
0.236272
0.119065
1.30993
1.0668
0.934679
0.848426
0.784359
0.732608
0.688109
0.64735
0.607715
0.56715
0.524886
0.481766
0.4402
0.40156
0.36612
0.333067
0.301986
0.271466
0.23783
0.119685
1.33052
1.09465
0.963005
0.875814
0.810852
0.758281
0.712867
0.671254
0.630708
0.589136
0.545509
0.500638
0.456328
0.414884
0.376597
0.340771
0.306855
0.273814
0.239176
0.120541
1.34816
1.11863
0.987377
0.899296
0.833545
0.780137
0.733998
0.69161
0.650213
0.607682
0.562826
0.5163
0.469838
0.425936
0.385154
0.346947
0.310679
0.275601
0.240193
0.121224
1.36336
1.13887
1.00785
0.918922
0.85247
0.798347
0.751542
0.708476
0.666322
0.622922
0.577009
0.529087
0.480876
0.434914
0.392018
0.351848
0.31362
0.276884
0.240781
0.121483
1.37638
1.15543
1.02442
0.934678
0.867565
0.812877
0.765521
0.721891
0.679103
0.63497
0.588195
0.539157
0.489563
0.441968
0.397399
0.355634
0.315807
0.277704
0.240836
0.121092
1.38726
1.16822
1.037
0.946537
0.878811
0.8237
0.77595
0.731898
0.688624
0.643923
0.596495
0.546625
0.496001
0.447199
0.40139
0.358393
0.317332
0.278114
0.240273
0.119842
1.39561
1.17704
1.04551
0.954475
0.88628
0.830857
0.782859
0.738533
0.694937
0.64985
0.60199
0.551576
0.500268
0.450675
0.404048
0.360199
0.318282
0.278212
0.239149
0.117723
1.40051
1.18159
1.04981
0.958451
0.88999
0.83439
0.78627
0.74182
0.698073
0.652795
0.604731
0.554059
0.502411
0.452439
0.405414
0.361113
0.318734
0.278153
0.238014
0.115285
0.52143
0.462616
0.382595
0.33896
0.329976
0.304264
0.86786
0.598009
0.466542
0.405447
0.36886
0.333378
0.283009
0.190253
0.188187
0.172957
0.148197
0.138524
0.13073
0.150733
1.0235
0.669672
0.544905
0.480466
0.435923
0.395324
0.354444
0.294727
0.212258
0.190439
0.180406
0.176023
0.188908
0.183461
0.154567
1.06667
0.742665
0.611964
0.540886
0.490646
0.446922
0.404779
0.358704
0.322932
0.339387
0.235206
0.231216
0.224169
0.215297
0.212923
0.213947
0.217877
0.153284
1.10884
0.80562
0.673188
0.597605
0.543393
0.497449
0.455307
0.418927
0.37371
0.340331
0.295679
0.270793
0.267514
0.261904
0.2513
0.240349
0.23442
0.231526
0.225635
0.145035
1.1496
0.86168
0.728816
0.650101
0.593045
0.545529
0.503408
0.465809
0.429123
0.392041
0.355531
0.32673
0.306009
0.292423
0.277083
0.262663
0.25233
0.244038
0.229442
0.133144
1.18879
0.912196
0.779222
0.698239
0.639104
0.590463
0.548253
0.510276
0.473386
0.436112
0.399424
0.366653
0.340971
0.320353
0.300367
0.281966
0.266928
0.253097
0.231692
0.124318
1.22519
0.957743
0.824762
0.742054
0.681344
0.63185
0.589382
0.551002
0.513841
0.476127
0.438349
0.402169
0.371715
0.345183
0.320801
0.298373
0.278727
0.259684
0.23325
0.118013
1.25767
0.998567
0.865714
0.781629
0.719641
0.669408
0.626467
0.58749
0.549752
0.511276
0.472041
0.433009
0.398127
0.366732
0.338429
0.312148
0.288229
0.264627
0.234781
0.120511
1.28584
1.03485
0.902298
0.817057
0.753976
0.703012
0.659382
0.619565
0.580947
0.541466
0.500691
0.459401
0.420846
0.385661
0.353455
0.323608
0.295864
0.268455
0.236375
0.120036
1.30994
1.0668
0.934684
0.848429
0.784365
0.732625
0.688114
0.647353
0.607722
0.567162
0.524903
0.481784
0.440202
0.401593
0.366092
0.333059
0.301982
0.271458
0.237925
0.120606
1.33053
1.09466
0.963012
0.875821
0.810862
0.758291
0.712873
0.671258
0.630715
0.589146
0.545522
0.500651
0.45633
0.414912
0.376574
0.340761
0.306851
0.273806
0.239268
0.121429
1.34818
1.11863
0.987385
0.899304
0.833555
0.780142
0.734
0.691614
0.65022
0.607691
0.562838
0.516309
0.469839
0.425959
0.385135
0.346934
0.310675
0.275594
0.240284
0.122079
1.36337
1.13887
1.00786
0.918926
0.852476
0.798348
0.751541
0.708479
0.666329
0.622929
0.577018
0.529094
0.480876
0.434933
0.392002
0.351835
0.313615
0.276878
0.240871
0.122299
1.3764
1.15543
1.02442
0.934679
0.867568
0.812876
0.765519
0.721893
0.679108
0.634975
0.588202
0.539162
0.489563
0.441984
0.397392
0.355619
0.315802
0.2777
0.240918
0.121854
1.38728
1.16822
1.037
0.946536
0.878813
0.823698
0.775949
0.731899
0.688628
0.643926
0.5965
0.546629
0.496001
0.44721
0.401388
0.35838
0.317328
0.27811
0.240346
0.120531
1.39563
1.17704
1.04551
0.954473
0.88628
0.830855
0.782858
0.738534
0.694938
0.649852
0.601993
0.551578
0.500267
0.450682
0.404047
0.36019
0.318279
0.278208
0.239216
0.118227
1.40053
1.18159
1.04981
0.958448
0.889989
0.834388
0.786269
0.741821
0.698074
0.652795
0.604732
0.554059
0.50241
0.452444
0.405413
0.361107
0.318732
0.278144
0.238048
0.111927
0.522401
0.469835
0.388283
0.344665
0.340006
0.312292
0.866783
0.596856
0.465343
0.404424
0.367861
0.332351
0.281435
0.200559
0.188186
0.172969
0.148182
0.138501
0.130725
0.150474
1.02361
0.669371
0.544625
0.480203
0.435666
0.39493
0.353642
0.292204
0.2144
0.190291
0.180397
0.17602
0.18891
0.183473
0.152325
1.06671
0.742644
0.611938
0.540848
0.490605
0.446837
0.40449
0.357284
0.324189
0.34689
0.236058
0.231102
0.224122
0.215283
0.212917
0.213955
0.217903
0.150616
1.10883
0.805644
0.67321
0.597614
0.5434
0.497461
0.45524
0.418568
0.372973
0.33991
0.295888
0.270143
0.26709
0.26173
0.25127
0.240343
0.234418
0.231532
0.225669
0.141333
1.14959
0.861698
0.728837
0.650114
0.593059
0.545569
0.503421
0.465736
0.428864
0.391678
0.355169
0.326429
0.305865
0.292285
0.277053
0.262658
0.25233
0.244042
0.229471
0.129943
1.18879
0.912207
0.779237
0.698248
0.639117
0.590507
0.548279
0.510277
0.473325
0.436006
0.399313
0.366549
0.340946
0.320279
0.300331
0.281962
0.266929
0.2531
0.231692
0.121413
1.22519
0.957751
0.824772
0.742061
0.681357
0.631887
0.589401
0.551017
0.513839
0.476113
0.438337
0.402142
0.371739
0.345177
0.320768
0.298368
0.278728
0.259689
0.233279
0.11538
1.25767
0.998574
0.865724
0.781634
0.719652
0.669437
0.626479
0.587503
0.549764
0.511288
0.472058
0.433007
0.398154
0.366756
0.338401
0.312143
0.28823
0.264632
0.234842
0.115382
1.28585
1.03486
0.902306
0.817064
0.753987
0.703037
0.659392
0.619575
0.580959
0.541482
0.500712
0.459408
0.420858
0.385692
0.353431
0.323603
0.295864
0.268457
0.236435
0.115105
1.30996
1.06681
0.934693
0.848437
0.784377
0.732645
0.688124
0.647361
0.607733
0.567176
0.524921
0.4818
0.440209
0.401622
0.366072
0.333052
0.301981
0.271459
0.237976
0.115789
1.33054
1.09466
0.963022
0.87583
0.810874
0.758304
0.712882
0.671266
0.630725
0.589158
0.545537
0.500665
0.456335
0.414936
0.376556
0.340753
0.30685
0.273806
0.239314
0.116727
1.34819
1.11864
0.987394
0.899313
0.833566
0.78015
0.734005
0.691621
0.650229
0.607701
0.56285
0.516319
0.469843
0.425979
0.385121
0.346924
0.310673
0.275594
0.240328
0.1175
1.36339
1.13888
1.00786
0.918932
0.852483
0.798352
0.751543
0.708483
0.666336
0.622937
0.577027
0.529102
0.480879
0.43495
0.391992
0.351824
0.313614
0.276879
0.240911
0.117857
1.37642
1.15543
1.02442
0.934682
0.867573
0.812877
0.76552
0.721896
0.679114
0.634981
0.588209
0.539168
0.489565
0.441998
0.397387
0.355608
0.3158
0.277701
0.240951
0.117576
1.3873
1.16822
1.037
0.946536
0.878815
0.823698
0.775949
0.731901
0.688631
0.64393
0.596505
0.546633
0.496002
0.447221
0.401386
0.358371
0.317327
0.278112
0.240372
0.116464
1.39564
1.17704
1.04551
0.954472
0.88628
0.830854
0.782857
0.738535
0.69494
0.649854
0.601995
0.55158
0.500268
0.450689
0.404047
0.360184
0.318279
0.278208
0.239237
0.114415
1.40055
1.18159
1.0498
0.958447
0.889988
0.834387
0.786268
0.741821
0.698074
0.652796
0.604734
0.554061
0.502409
0.452449
0.405414
0.361102
0.318733
0.278144
0.238046
0.110213
0.524041
0.477627
0.394605
0.350526
0.348333
0.318821
0.865805
0.596061
0.464466
0.403792
0.367228
0.33181
0.281019
0.213137
0.188144
0.172972
0.148171
0.138481
0.130711
0.150053
1.02366
0.669068
0.544343
0.479941
0.435409
0.394541
0.352944
0.291419
0.216531
0.190161
0.180387
0.176018
0.18891
0.183472
0.152475
1.06675
0.742608
0.611899
0.540801
0.490554
0.446732
0.404189
0.356081
0.32614
0.35269
0.237205
0.231171
0.224085
0.215273
0.212913
0.213964
0.217775
0.150185
1.10883
0.805668
0.673232
0.597625
0.543408
0.497464
0.455152
0.41821
0.372471
0.339978
0.296628
0.270131
0.266848
0.261607
0.251242
0.240338
0.234418
0.231538
0.225563
0.140451
1.14959
0.861724
0.728866
0.650134
0.593081
0.545609
0.503425
0.465642
0.428622
0.391379
0.354898
0.326165
0.305731
0.292167
0.277024
0.262655
0.252332
0.244051
0.229362
0.129147
1.18879
0.912227
0.77926
0.698267
0.63914
0.590553
0.548305
0.51027
0.473255
0.435898
0.399207
0.366439
0.340908
0.320216
0.3003
0.28196
0.266933
0.253108
0.231659
0.119383
1.2252
0.957767
0.824791
0.742076
0.681377
0.631928
0.589426
0.551032
0.513832
0.476092
0.438317
0.40211
0.37175
0.345169
0.320741
0.298366
0.278733
0.259706
0.233275
0.113478
1.25769
0.998587
0.865739
0.781648
0.719671
0.669471
0.626499
0.587521
0.549776
0.511298
0.47207
0.433004
0.398175
0.366775
0.338379
0.312141
0.288235
0.264649
0.234858
0.112562
1.28586
1.03487
0.90232
0.817076
0.754004
0.703064
0.659408
0.61959
0.580974
0.541499
0.500732
0.459416
0.420872
0.385719
0.353415
0.323601
0.29587
0.268474
0.236453
0.112386
1.30997
1.06682
0.934706
0.848449
0.784393
0.732667
0.688138
0.647373
0.607746
0.567192
0.52494
0.481815
0.44022
0.401647
0.366058
0.333049
0.301986
0.271474
0.237986
0.113133
1.33056
1.09467
0.963034
0.875842
0.810888
0.75832
0.712893
0.671276
0.630737
0.589172
0.545553
0.500679
0.456342
0.414957
0.376545
0.340748
0.306855
0.273821
0.239318
0.114133
1.34821
1.11864
0.987404
0.899323
0.833578
0.780161
0.734012
0.691628
0.650239
0.607713
0.562863
0.51633
0.469849
0.425997
0.385112
0.346919
0.310678
0.275609
0.240328
0.114975
1.36341
1.13888
1.00787
0.91894
0.852492
0.798358
0.751547
0.708489
0.666344
0.622946
0.577038
0.529111
0.480883
0.434965
0.391986
0.351818
0.313618
0.276894
0.240908
0.11541
1.37644
1.15544
1.02442
0.934686
0.867578
0.81288
0.765522
0.7219
0.67912
0.634988
0.588217
0.539174
0.489568
0.44201
0.397385
0.355602
0.315805
0.277716
0.240944
0.115224
1.38732
1.16823
1.037
0.946538
0.878818
0.823698
0.775949
0.731904
0.688635
0.643935
0.59651
0.546636
0.496004
0.44723
0.401386
0.358367
0.317331
0.278127
0.240359
0.114231
1.39566
1.17705
1.04551
0.954472
0.886281
0.830853
0.782857
0.738536
0.694942
0.649856
0.601999
0.551581
0.500268
0.450696
0.404049
0.360181
0.318283
0.278219
0.239218
0.112349
1.40057
1.18159
1.0498
0.958445
0.889988
0.834386
0.786268
0.741822
0.698076
0.652797
0.604736
0.554062
0.50241
0.452454
0.405416
0.361101
0.318738
0.278154
0.238
0.109063
0.525935
0.485015
0.400713
0.356014
0.355003
0.323999
0.86502
0.59567
0.463951
0.403538
0.366951
0.331706
0.281666
0.226351
0.188075
0.172969
0.14816
0.138466
0.130704
0.150009
1.0237
0.668788
0.544081
0.479701
0.435172
0.394191
0.352415
0.292166
0.218506
0.190054
0.180374
0.176012
0.188916
0.183445
0.155432
1.06678
0.742561
0.611848
0.540748
0.490496
0.446617
0.403902
0.355159
0.328375
0.357098
0.238436
0.231397
0.224054
0.215262
0.212907
0.213964
0.217796
0.153916
1.10884
0.80569
0.673251
0.597635
0.543414
0.497457
0.455052
0.417879
0.372205
0.340421
0.297699
0.270631
0.266798
0.261545
0.251213
0.240331
0.234415
0.231537
0.225597
0.144274
1.14959
0.861755
0.728897
0.650159
0.593105
0.545643
0.503416
0.465536
0.428415
0.391163
0.354728
0.325966
0.305629
0.29207
0.276994
0.262651
0.252333
0.244049
0.229372
0.132074
1.1888
0.912254
0.77929
0.698292
0.639168
0.590598
0.548328
0.510253
0.473181
0.435799
0.399114
0.366334
0.340864
0.320161
0.300272
0.281958
0.266935
0.253111
0.231571
0.117811
1.22522
0.957789
0.824815
0.742098
0.681404
0.631971
0.589453
0.551044
0.51382
0.476067
0.438293
0.402073
0.371751
0.34516
0.320719
0.298365
0.278737
0.259719
0.233215
0.111798
1.25771
0.998606
0.865759
0.781666
0.719694
0.669508
0.626523
0.587539
0.549786
0.511304
0.472078
0.432999
0.398191
0.36679
0.338363
0.31214
0.288241
0.264668
0.234816
0.110472
1.28588
1.03488
0.902338
0.817093
0.754025
0.703094
0.659428
0.619607
0.580989
0.541515
0.50075
0.459425
0.420887
0.385741
0.353403
0.3236
0.295876
0.268494
0.236415
0.110367
1.30999
1.06683
0.934722
0.848464
0.784411
0.732691
0.688154
0.647387
0.60776
0.567209
0.524958
0.481829
0.440231
0.401669
0.366049
0.333047
0.301993
0.271495
0.237941
0.111162
1.33058
1.09469
0.963048
0.875856
0.810905
0.758337
0.712906
0.671288
0.63075
0.589187
0.54557
0.500693
0.456352
0.414976
0.376538
0.340747
0.306861
0.273841
0.239267
0.112208
1.34823
1.11866
0.987416
0.899335
0.833591
0.780173
0.734021
0.691638
0.65025
0.607725
0.562877
0.516342
0.469856
0.426013
0.385106
0.346916
0.310684
0.275629
0.240272
0.113102
1.36342
1.13889
1.00788
0.918948
0.852501
0.798365
0.751553
0.708496
0.666353
0.622955
0.577048
0.529119
0.480889
0.434978
0.391983
0.351815
0.313624
0.276913
0.240848
0.113597
1.37646
1.15545
1.02443
0.934691
0.867584
0.812884
0.765524
0.721904
0.679126
0.634995
0.588224
0.53918
0.489572
0.44202
0.397384
0.3556
0.31581
0.277733
0.240882
0.113486
1.38733
1.16823
1.03701
0.946541
0.878821
0.8237
0.77595
0.731906
0.688639
0.643939
0.596515
0.54664
0.496006
0.447238
0.401387
0.358366
0.317337
0.278139
0.240294
0.112596
1.39568
1.17705
1.04551
0.954472
0.886283
0.830853
0.782857
0.738538
0.694945
0.649859
0.602002
0.551584
0.50027
0.450703
0.404051
0.360182
0.318289
0.278228
0.239156
0.110923
1.40058
1.18159
1.0498
0.958445
0.889989
0.834385
0.786268
0.741823
0.698077
0.652799
0.604738
0.554064
0.502411
0.45246
0.405419
0.361103
0.318744
0.278165
0.238027
0.110214
0.527831
0.491537
0.406189
0.360881
0.360226
0.328048
0.864479
0.59567
0.463794
0.403622
0.366989
0.331977
0.283221
0.239158
0.18799
0.172959
0.148154
0.138456
0.130705
0.150234
1.02372
0.668552
0.543859
0.4795
0.434972
0.393906
0.352105
0.294165
0.220269
0.189972
0.180361
0.176011
0.188922
0.18341
0.158279
1.06682
0.742512
0.611795
0.540693
0.490437
0.446502
0.403652
0.354555
0.330646
0.360428
0.239645
0.231764
0.224038
0.215257
0.212905
0.21396
0.217931
0.157599
1.10886
0.805708
0.673266
0.597643
0.543418
0.497442
0.454949
0.417596
0.372153
0.341126
0.298936
0.271499
0.266935
0.261553
0.251192
0.240328
0.234413
0.231532
0.22574
0.147972
1.14961
0.861788
0.728929
0.650185
0.593131
0.545672
0.5034
0.465428
0.428257
0.391038
0.354662
0.325851
0.305575
0.292005
0.276968
0.262649
0.252332
0.244042
0.229476
0.134768
1.18882
0.912285
0.779322
0.69832
0.639199
0.590641
0.548346
0.51023
0.473113
0.435718
0.399045
0.366245
0.340825
0.320117
0.300248
0.281956
0.266935
0.253103
0.23157
0.120915
1.22524
0.957817
0.824844
0.742124
0.681434
0.632014
0.58948
0.551052
0.513805
0.476041
0.43827
0.402035
0.371746
0.34515
0.3207
0.298363
0.278738
0.259715
0.233224
0.114524
1.25773
0.99863
0.865784
0.781689
0.719722
0.669545
0.62655
0.587557
0.549793
0.511307
0.472083
0.432992
0.398202
0.3668
0.33835
0.312139
0.288242
0.264666
0.234832
0.112729
1.2859
1.0349
0.902359
0.817113
0.754049
0.703125
0.659451
0.619625
0.581003
0.541528
0.500765
0.459432
0.4209
0.385759
0.353393
0.323599
0.295878
0.268493
0.236434
0.112512
1.31001
1.06685
0.93474
0.848482
0.784432
0.732715
0.688172
0.647402
0.607775
0.567224
0.524976
0.481842
0.440244
0.401687
0.366041
0.333046
0.301994
0.271493
0.237956
0.113228
1.33059
1.0947
0.963064
0.875872
0.810922
0.758355
0.71292
0.671301
0.630764
0.589202
0.545586
0.500706
0.456362
0.414993
0.376532
0.340744
0.306862
0.273839
0.239276
0.114211
1.34824
1.11867
0.987429
0.899348
0.833605
0.780186
0.734032
0.691648
0.650261
0.607737
0.56289
0.516353
0.469864
0.426027
0.385102
0.346913
0.310685
0.275626
0.240276
0.115047
1.36344
1.13891
1.00789
0.918958
0.852511
0.798373
0.751559
0.708503
0.666361
0.622965
0.577059
0.529128
0.480895
0.434989
0.39198
0.351812
0.313625
0.276909
0.24085
0.115482
1.37647
1.15546
1.02444
0.934698
0.867591
0.812888
0.765528
0.72191
0.679133
0.635002
0.588232
0.539187
0.489576
0.44203
0.397383
0.355598
0.315811
0.277727
0.240886
0.115302
1.38735
1.16824
1.03701
0.946544
0.878825
0.823702
0.775952
0.731909
0.688644
0.643944
0.59652
0.546645
0.496009
0.447245
0.401388
0.358364
0.317338
0.278131
0.240307
0.114324
1.3957
1.17706
1.04551
0.954474
0.886285
0.830854
0.782858
0.73854
0.694948
0.649861
0.602005
0.551587
0.500272
0.450708
0.404052
0.360181
0.318289
0.27822
0.239182
0.112532
1.4006
1.1816
1.0498
0.958446
0.88999
0.834386
0.786268
0.741824
0.698079
0.652801
0.604741
0.554066
0.502413
0.452465
0.405421
0.361103
0.318746
0.278163
0.238112
0.111554
0.529599
0.497053
0.410887
0.365046