/*--------------------------------*- C++ -*----------------------------------*\
  =========                 |
  \\      /  F ield         | OpenFOAM: The Open Source CFD Toolbox
   \\    /   O peration     | Website:  https://openfoam.org
    \\  /    A nd           | Version:  10
     \\/     M anipulation  |
\*---------------------------------------------------------------------------*/
FoamFile
{
    format      ascii;
    class       volScalarField;
    location    "2000";
    object      nut;
}
// * * * * * * * * * * * * * * * * * * * * * * * * * * * * * * * * * * * * * //

dimensions      [0 2 -1 0 0 0 0];

internalField   nonuniform List<scalar> 
52338
(
0.489089
0.35504
0.311307
0.231347
0.155293
0.118509
1.15076
1.79365
1.57261
1.40132
1.23582
1.05364
0.599511
0.132742
0.115304
0.166107
0.252892
0.419076
0.371193
0.479102
2.80322
3.26113
3.2069
3.05242
2.81601
2.41651
1.63895
0.641135
0.0597823
0.805679
0.91787
1.04598
1.30279
1.02317
0.527362
3.1555
4.19953
4.38008
4.30859
4.06578
3.61514
2.8111
1.6073
0.550321
0.141125
0.327182
0.959661
1.86288
1.98413
2.01234
1.84713
1.27083
0.47168
3.49956
5.03648
5.46363
5.51183
5.30015
4.82784
4.02841
2.97296
1.70192
1.10587
0.754757
0.900711
1.30065
2.1527
2.65755
2.73901
2.63664
2.27981
1.51882
0.523441
3.86187
5.81642
6.44993
6.62145
6.46168
6.00083
5.22864
4.21962
3.22209
2.62125
2.3434
2.36499
2.57131
3.11251
3.44174
3.43445
3.18804
2.6278
1.68433
0.501877
4.24895
6.57782
7.35649
7.63296
7.53035
7.10368
6.38949
5.45537
4.51069
3.87913
3.56066
3.53746
3.66758
3.99638
4.17532
4.06266
3.67098
2.95765
1.81837
0.474895
4.65423
7.33952
8.2012
8.55366
8.50258
8.11506
7.45868
6.60719
5.73964
5.10868
4.75101
4.63943
4.67057
4.81697
4.85248
4.62591
4.09475
3.24179
1.94922
0.45944
5.06718
8.10455
8.99565
9.3923
9.38066
9.03383
8.42963
7.65063
6.85372
6.23335
5.84051
5.6477
5.57797
5.58113
5.48003
5.12907
4.46792
3.47487
2.06532
0.454308
5.47782
8.86793
9.74508
10.1556
10.1681
9.85326
9.2925
8.573
7.83163
7.22322
6.80087
6.5391
6.38765
6.27142
6.04425
5.57611
4.7968
3.68084
2.16671
0.457259
5.87791
9.62157
10.4496
10.8471
10.8682
10.5758
10.0289
9.22673
8.46664
7.84907
7.41832
7.17252
7.02157
6.87822
6.54314
5.96989
5.08563
3.86421
2.26229
0.46379
6.25996
10.356
11.1055
11.4674
11.4831
11.1635
10.4649
9.68213
8.94123
8.33489
7.89913
7.61973
7.51245
7.35646
6.97691
6.31237
5.33701
4.02757
2.35407
0.471034
6.61689
11.0604
11.7062
12.0147
12.0139
11.5684
10.8263
10.0589
9.33893
8.74218
8.30032
8.01431
7.87774
7.74074
7.34666
6.60486
5.55223
4.17215
2.44224
0.477477
6.94127
11.7217
12.2449
12.4896
12.4648
11.8963
11.1335
10.3681
9.66501
9.07705
8.63109
8.33471
8.18803
8.05572
7.65347
6.84531
5.73172
4.29808
2.52855
0.482162
7.22441
12.3221
12.7057
12.8801
12.8275
12.1546
11.3739
10.6134
9.9228
9.34202
8.89228
8.58899
8.43545
8.3117
7.89646
7.04138
5.87531
4.4043
2.61646
0.48433
7.45565
12.8374
13.075
13.1816
13.0699
12.3507
11.5535
10.796
10.1146
9.53819
9.08798
8.77864
8.62026
8.50636
8.08116
7.18735
5.98278
4.48887
2.71211
0.483314
7.62249
13.2332
13.3361
13.3876
13.2199
12.4799
11.6726
10.9168
10.2419
9.66914
9.2177
8.90509
8.74363
8.63794
8.20444
7.28462
6.05396
4.54846
2.84203
0.480212
7.7114
13.4606
13.4727
13.4924
13.2935
12.5425
11.7307
10.9762
10.3045
9.73395
9.28137
8.96676
8.80255
8.70074
8.2663
7.33325
6.08912
4.57955
2.92067
0.486486
0.504344
0.411189
0.368654
0.310286
0.173005
0.160704
1.16207
1.84116
1.62055
1.43809
1.27017
1.08812
0.685325
0.158184
0.115426
0.166055
0.252367
0.418477
0.370313
0.472514
2.82135
3.26562
3.21264
3.05648
2.81901
2.43165
1.67398
0.711564
0.101373
0.804013
0.915383
1.04259
1.30104
1.02253
0.542932
3.16398
4.20493
4.38654
4.31506
4.07211
3.62811
2.82544
1.7248
0.597961
0.179754
0.310073
1.32596
1.85726
1.98125
2.00995
1.84531
1.28076
0.484284
3.5058
5.04061
5.46858
5.51709
5.30567
4.8416
4.04406
2.98234
1.74613
1.14361
0.851302
0.948681
1.58638
2.17833
2.65282
2.73649
2.63495
2.28017
1.53577
0.525595
3.86714
5.81993
6.45401
6.62586
6.46649
6.01326
5.24613
4.23019
3.22614
2.62653
2.35569
2.39996
2.62406
3.12817
3.43706
3.43262
3.18692
2.62767
1.70687
0.499464
4.25345
6.58108
7.36006
7.6368
7.53461
7.11134
6.39778
5.46071
4.51688
3.88635
3.57476
3.55936
3.7058
4.03175
4.18415
4.06161
3.67026
2.95832
1.84759
0.473491
4.65821
7.34262
8.20437
8.55703
8.50635
8.12225
7.46634
6.61156
5.74474
5.11464
4.76347
4.6605
4.70387
4.85188
4.86623
4.62534
4.0943
3.24181
1.98212
0.458495
5.07082
8.10745
8.99847
9.39522
9.38387
9.03896
8.43539
7.65421
6.85775
6.23826
5.85086
5.66644
5.59562
5.60023
5.49115
5.12872
4.46766
3.47504
2.10292
0.453611
5.48113
8.87056
9.74753
10.158
10.1707
9.85747
9.29729
8.57595
7.83494
7.22723
6.80922
6.56346
6.40569
6.28341
6.05261
5.57587
4.79665
3.68108
2.20894
0.456612
5.88086
9.62388
10.4517
10.8491
10.8703
10.5787
10.031
9.23391
8.47239
7.85439
7.42332
7.18179
7.03605
6.88515
6.54897
5.96968
5.08555
3.86449
2.30888
0.463235
6.26264
10.358
11.1073
11.4692
11.485
11.1797
10.4668
9.68363
8.94666
8.33836
7.90265
7.61731
7.52375
7.33843
6.98028
6.31196
5.33697
4.0279
2.40462
0.470582
6.61946
11.062
11.7081
12.0167
12.0161
11.5725
10.8331
10.0593
9.34257
8.74421
8.30279
8.01236
7.88207
7.72411
7.3477
6.60385
5.55217
4.17248
2.49681
0.477142
6.94388
11.7228
12.2456
12.49
12.4654
11.8978
11.1358
10.3685
9.66709
9.07759
8.63172
8.33277
8.18922
8.04483
7.65377
6.84546
5.73163
4.29841
2.58695
0.482002
7.22705
12.3228
12.7062
12.8804
12.828
12.1565
11.3747
10.6134
9.92379
9.3414
8.89228
8.58693
8.43413
8.30105
7.896
7.04115
5.87529
4.40464
2.67873
0.484423
7.45824
12.8377
13.0752
13.1818
13.0728
12.3522
11.5535
10.7957
10.1148
9.53801
9.08667
8.77645
8.61734
8.49683
8.07991
7.18705
5.98282
4.48916
2.77861
0.483795
7.62496
13.2331
13.3361
13.3877
13.2212
12.4807
11.6725
10.9166
10.2419
9.66811
9.21561
8.90358
8.74017
8.63015
8.2032
7.28435
6.05404
4.5488
2.89375
0.481332
7.71372
13.4601
13.4725
13.4923
13.295
12.543
11.7306
10.9763
10.3044
9.73236
9.27998
8.96673
8.80096
8.69688
8.26559
7.33315
6.08926
4.57994
2.91947
0.488883
0.503881
0.417845
0.373777
0.322994
0.185524
0.172068
1.16847
1.84101
1.62166
1.4361
1.26683
1.0849
0.686589
0.162374
0.115465
0.166016
0.252137
0.418055
0.370093
0.467938
2.82387
3.26539
3.21287
3.0552
2.81716
2.43191
1.68796
0.707399
0.115819
0.802904
0.91411
1.041
1.30042
1.02224
0.55008
3.16302
4.20558
4.3871
4.31483
4.07113
3.62572
2.82286
1.711
0.593022
0.192432
0.311925
1.33632
1.85489
1.97975
2.00847
1.84449
1.28573
0.492801
3.50548
5.04065
5.46837
5.51637
5.30438
4.83987
4.03999
2.98028
1.73963
1.14416
0.853645
0.952903
1.59337
2.1821
2.64994
2.73489
2.63374
2.28032
1.54726
0.526681
3.86748
5.81968
6.45351
6.62499
6.46518
6.0123
5.24499
4.229
3.22441
2.62601
2.35502
2.40672
2.6273
3.12106
3.43474
3.43125
3.18593
2.62825
1.72059
0.498295
4.25409
6.58082
7.35957
7.63606
7.53356
7.11124
6.39681
5.45939
4.51662
3.88691
3.57528
3.55649
3.70231
4.02419
4.18094
4.06053
3.66953
2.95982
1.86552
0.472775
4.65904
7.34244
8.20399
8.55648
8.50564
8.12232
7.46538
6.61062
5.74435
5.1147
4.76384
4.65874
4.70253
4.85124
4.86515
4.62456
4.09379
3.24165
2.00284
0.457429
5.07167
8.10738
8.99822
9.39485
9.38339
9.03884
8.43461
7.65356
6.8572
6.2381
5.85117
5.66545
5.59629
5.60128
5.48992
5.12817
4.46733
3.475
2.12782
0.452295
5.4819
8.87059
9.74738
10.1578
10.1705
9.85757
9.297
8.57547
7.83452
7.22713
6.80947
6.56208
6.40365
6.28283
6.05142
5.57547
4.79645
3.68119
2.23799
0.455206
5.88148
9.62396
10.4516
10.849
10.8702
10.5793
10.0327
9.23451
8.47167
7.85612
7.42509
7.17326
7.06548
6.86776
6.54784
5.96939
5.08546
3.86468
2.34151
0.461827
6.26315
10.3581
11.1074
11.4693
11.4851
11.183
10.4682
9.68384
8.94643
8.3393
7.90179
7.62268
7.5221
7.32636
6.97927
6.31164
5.33695
4.02813
2.44037
0.469181
6.61991
11.0621
11.7084
12.0172
12.0167
11.5739
10.8348
10.0598
9.34245
8.74475
8.30169
8.01254
7.88431
7.71482
7.34671
6.60305
5.5521
4.17276
2.53558
0.475749
6.9443
11.7229
12.2456
12.4899
12.4653
11.8997
11.1368
10.3687
9.66685
9.07776
8.63053
8.33231
8.18998
8.03951
7.65206
6.84528
5.73153
4.2987
2.62872
0.480601
7.22746
12.3229
12.7062
12.8803
12.828
12.158
11.3753
10.6135
9.92365
9.34126
8.89112
8.58604
8.4336
8.29793
7.89572
7.04028
5.87526
4.40492
2.72357
0.483003
7.45867
12.8378
13.0752
13.1818
13.0732
12.3528
11.5537
10.7957
10.1146
9.53732
9.08539
8.77545
8.6159
8.49396
8.07958
7.18651
5.98286
4.48929
2.82683
0.482408
7.62535
13.2331
13.3361
13.3876
13.2223
12.4812
11.6724
10.9164
10.2413
9.66722
9.2143
8.90185
8.73762
8.62678
8.20292
7.28404
6.05411
4.54879
2.89131
0.479984
7.71408
13.4599
13.4724
13.4923
13.2956
12.5436
11.7306
10.976
10.3041
9.7316
9.27887
8.9654
8.79875
8.69441
8.26545
7.33309
6.08937
4.58
2.91813
0.486946
0.503683
0.426886
0.380951
0.334033
0.195931
0.182191
1.17155
1.84123
1.62185
1.43511
1.26558
1.08392
0.689359
0.16792
0.115509
0.166018
0.252015
0.417757
0.370142
0.463982
2.82668
3.26528
3.21317
3.05461
2.81667
2.43288
1.70066
0.707991
0.118872
0.802116
0.913708
1.04054
1.30025
1.02189
0.555432
3.16253
4.20643
4.38809
4.3154
4.07141
3.62517
2.82351
1.70304
0.595712
0.198544
0.310479
1.34565
1.85349
1.97895
2.00766
1.84432
1.28799
0.501563
3.50451
5.04092
5.46857
5.51629
5.30402
4.83922
4.03812
2.97886
1.73595
1.14577
0.857416
0.950393
1.5993
2.18669
2.64843
2.73412
2.6331
2.28174
1.55227
0.529035
3.86662
5.81962
6.45328
6.62452
6.46448
6.01194
5.24449
4.22906
3.22335
2.62586
2.35479
2.41117
2.63138
3.11746
3.43344
3.43042
3.18526
2.63075
1.72836
0.499588
4.25339
6.58067
7.35923
7.63554
7.53289
7.11128
6.39635
5.45906
4.51695
3.88789
3.57597
3.55512
3.70097
4.01963
4.17899
4.05978
3.66897
2.9632
1.87637
0.474106
4.6585
7.34235
8.2037
8.55606
8.50513
8.12245
7.46486
6.61021
5.74441
5.11516
4.76426
4.65721
4.70194
4.85099
4.86448
4.62397
4.09339
3.24144
2.01658
0.458137
5.07133
8.10738
8.99801
9.39456
9.38303
9.03882
8.43411
7.65317
6.85698
6.23824
5.85143
5.6643
5.59675
5.60259
5.48929
5.12772
4.46705
3.47488
2.14401
0.452845
5.48174
8.87067
9.74726
10.1576
10.1702
9.85766
9.2968
8.57516
7.83427
7.22716
6.80963
6.56088
6.40263
6.28309
6.05075
5.57515
4.79628
3.68116
2.25764
0.455604
5.88147
9.62411
10.4516
10.849
10.8702
10.5796
10.0321
9.23417
8.47024
7.85471
7.42535
7.17115
7.06636
6.8712
6.5472
5.96916
5.08538
3.86473
2.36389
0.462154
6.26321
10.3583
11.1075
11.4694
11.4853
11.183
10.4682
9.68333
8.9455
8.33831
7.90162
7.62383
7.52073
7.32769
6.97877
6.31137
5.3369
4.02822
2.46537
0.46945
6.62008
11.0624
11.7086
12.0176
12.017
11.5738
10.8351
10.0594
9.34176
8.7441
8.30155
8.01319
7.88484
7.71598
7.3463
6.60256
5.55204
4.17287
2.56308
0.475947
6.94454
11.7232
12.2457
12.49
12.4653
11.8997
11.1369
10.3685
9.66632
9.07731
8.63057
8.33273
8.19053
8.04049
7.65153
6.84502
5.73146
4.29883
2.65875
0.480697
7.22773
12.3232
12.7061
12.8803
12.828
12.158
11.3754
10.6134
9.92326
9.3409
8.89122
8.5863
8.43368
8.29921
7.8958
7.03984
5.87522
4.40503
2.75622
0.48296
7.45898
12.8381
13.0751
13.1817
13.0729
12.3527
11.5539
10.7956
10.1143
9.53687
9.08529
8.77554
8.61559
8.49458
8.0797
7.18619
5.98285
4.4893
2.84149
0.482196
7.62561
13.2333
13.336
13.3876
13.2221
12.4812
11.6724
10.9163
10.2408
9.66672
9.2141
8.9015
8.73676
8.62626
8.20297
7.28385
6.05413
4.54861
2.88904
0.479561
7.71432
13.46
13.4722
13.4922
13.2956
12.5437
11.7306
10.976
10.3038
9.73146
9.2789
8.96541
8.79881
8.69493
8.26547
7.33306
6.0894
4.57969
2.91622
0.485136
0.50448
0.437906
0.390045
0.344721
0.199871
0.186335
1.17217
1.84224
1.62237
1.43564
1.26536
1.08465
0.694266
0.17671
0.115561
0.166037
0.251954
0.417549
0.370221
0.460441
2.82904
3.26528
3.21351
3.05432
2.81666
2.43409
1.71216
0.713252
0.121295
0.8014
0.913592
1.04047
1.30017
1.0211
0.568497
3.16253
4.20747
4.38945
4.31652
4.07253
3.62585
2.82609
1.69939
0.602732
0.204073
0.308707
1.35461
1.85265
1.97848
2.00721
1.84436
1.28742
0.562407
3.50398
5.0415
5.4693
5.51692
5.30458
4.83964
4.03786
2.97771
1.73405
1.14863
0.862821
0.949689
1.60516
2.19179
2.64756
2.73379
2.6328
2.28294
1.55373
0.532515
3.86622
5.81983
6.45348
6.62464
6.46456
6.01241
5.24482
4.22977
3.22265
2.62603
2.35525
2.41483
2.6358
3.11574
3.43254
3.42999
3.1849
2.63292
1.73147
0.501786
4.25316
6.58076
7.35923
7.63545
7.53279
7.11185
6.39661
5.45952
4.51775
3.88927
3.57713
3.55494
3.7009
4.01664
4.17766
4.05931
3.66862
2.96585
1.8831
0.476005
4.65838
7.34245
8.20365
8.55593
8.50501
8.12293
7.46494
6.61042
5.74502
5.11615
4.76512
4.65636
4.70181
4.85078
4.86401
4.62357
4.09308
3.24117
2.02533
0.459524
5.07127
8.10753
8.99797
9.39447
9.38295
9.03912
8.43409
7.65322
6.85722
6.23878
5.852
5.66357
5.59715
5.60367
5.48898
5.1274
4.46683
3.47469
2.15545
0.45379
5.48176
8.87088
9.74727
10.1576
10.1702
9.85794
9.29687
8.57515
7.83435
7.22746
6.81
6.5602
6.4023
6.28359
6.05038
5.57488
4.79614
3.68101
2.27314
0.456399
5.8815
9.62437
10.4517
10.849
10.8702
10.5799
10.0316
9.23387
8.4694
7.8534
7.42424
7.16898
7.06696
6.87349
6.54683
5.96891
5.08528
3.8646
2.38176
0.462869
6.2633
10.3586
11.1077
11.4696
11.4855
11.1831
10.4681
9.68302
8.9449
8.33728
7.90062
7.62316
7.52065
7.32964
6.97846
6.3111
5.33681
4.02808
2.48532
0.470096
6.6202
11.0627
11.7088
12.0179
12.0173
11.5738
10.8353
10.0592
9.34125
8.7433
8.30071
8.01297
7.88553
7.71749
7.34604
6.60219
5.55196
4.17275
2.58503
0.476507
6.94473
11.7235
12.2458
12.49
12.4654
11.8998
11.1369
10.3683
9.66589
9.07669
8.62996
8.33262
8.19136
8.04132
7.65129
6.84474
5.73137
4.29871
2.68275
0.481136
7.22795
12.3235
12.7062
12.8803
12.828
12.158
11.3755
10.6132
9.92287
9.34039
8.89079
8.58629
8.43454
8.30053
7.89584
7.03952
5.87513
4.40488
2.77406
0.483225
7.4592
12.8384
13.0751
13.1817
13.073
12.3526
11.5539
10.7954
10.1138
9.53642
9.08489
8.77548
8.61629
8.49602
8.0798
7.18593
5.98279
4.48915
2.83895
0.48221
7.62585
13.2335
13.336
13.3875
13.2222
12.4811
11.6723
10.916
10.2403
9.6662
9.21369
8.90124
8.73704
8.62714
8.20304
7.28369
6.05409
4.54842
2.88671
0.479257
7.71451
13.4601
13.4722
13.4921
13.2958
12.5438
11.7306
10.9757
10.3034
9.73126
9.27877
8.96547
8.7994
8.69638
8.2655
7.33298
6.08937
4.57923
2.91413
0.483914
0.505917
0.449136
0.399453
0.354725
0.205159
0.191286
1.17154
1.84417
1.62359
1.43757
1.26606
1.08669
0.701097
0.187575
0.115618
0.166054
0.251916
0.41739
0.370216
0.464703
2.83088
3.26542
3.21389
3.05428
2.81695
2.43534
1.72287
0.721739
0.123757
0.800757
0.91355
1.04052
1.30015
1.02066
0.573976
3.16275
4.2086
4.39096
4.31793
4.07405
3.62713
2.8298
1.69869
0.611288
0.210167
0.30842
1.36356
1.85215
1.9782
2.00696
1.84443
1.28601
0.567922
3.50362
5.0423
5.47038
5.51801
5.30573
4.8407
4.03861
2.9768
1.73353
1.15256
0.869381
0.951079
1.61108
2.19723
2.64707
2.73367
2.63269
2.28329
1.55265
0.541596
3.86594
5.82028
6.45405
6.62523
6.4652
6.01341
5.24566
4.23068
3.2223
2.62664
2.35635
2.41808
2.64038
3.11533
3.43191
3.42979
3.18475
2.6337
1.73073
0.510028
4.25307
6.58106
7.35952
7.63574
7.53316
7.11281
6.39735
5.46043
4.51879
3.8909
3.57862
3.55553
3.70166
4.01471
4.17675
4.05903
3.66843
2.96658
1.8831
0.48359
4.65839
7.34273
8.20382
8.5561
8.50526
8.12373
7.46546
6.61106
5.74598
5.11748
4.76627
4.65603
4.70202
4.85064
4.8637
4.62332
4.09292
3.24099
2.02713
0.466182
5.07137
8.10783
8.99811
9.39459
9.38314
9.03968
8.43444
7.65362
6.85781
6.23965
5.85281
5.66317
5.59756
5.60455
5.48884
5.12717
4.46669
3.47455
2.15428
0.454737
5.48193
8.87122
9.74741
10.1577
10.1704
9.85839
9.29718
8.5754
7.83469
7.22802
6.81057
6.55988
6.40236
6.28416
6.05021
5.57466
4.79602
3.6809
2.27662
0.457158
5.88169
9.62474
10.4519
10.8492
10.8704
10.5803
10.0311
9.23355
8.46909
7.85301
7.42394
7.16818
7.06775
6.87495
6.54663
5.9687
5.08519
3.86444
2.38913
0.463538
6.26348
10.359
11.1079
11.4699
11.4857
11.183
10.4679
9.68278
8.94469
8.33694
7.90037
7.62277
7.52069
7.33102
6.97827
6.31084
5.33672
4.0279
2.49397
0.470695
6.62042
11.0631
11.7091
12.0181
12.0175
11.5738
10.8352
10.059
9.34111
8.74308
8.30042
8.01288
7.88579
7.71849
7.34588
6.60187
5.55186
4.17255
2.5949
0.477017
6.94495
11.724
12.246
12.4902
12.4655
11.8997
11.1369
10.3682
9.66578
9.07652
8.6297
8.33249
8.19162
8.04206
7.65116
6.84446
5.73126
4.29849
2.6935
0.481523
7.2282
12.3239
12.7063
12.8803
12.8281
12.1579
11.3754
10.6131
9.92278
9.34026
8.89059
8.58619
8.43479
8.3013
7.89587
7.03925
5.87503
4.40468
2.77213
0.483433
7.45942
12.8388
13.0752
13.1817
13.073
12.3525
11.5539
10.7953
10.1138
9.53629
9.08471
8.77536
8.61647
8.49673
8.07988
7.18572
5.98271
4.48898
2.83712
0.482196
7.62602
13.2338
13.3359
13.3875
13.2222
12.481
11.6723
10.9158
10.2401
9.66602
9.21344
8.90092
8.73691
8.62737
8.2031
7.28354
6.05403
4.54824
2.88533
0.479271
7.71472
13.4603
13.4721
13.4921
13.2958
12.5437
11.7306
10.9757
10.3033
9.7312
9.27871
8.96542
8.79961
8.69716
8.26554
7.33289
6.08935
4.57889
2.9164
0.493855
0.507636
0.459466
0.408197
0.363673
0.210955
0.19643
1.1702
1.84707
1.6256
1.44072
1.26759
1.08977
0.70958
0.199536
0.115661
0.166066
0.251886
0.417254
0.370119
0.452413
2.83216
3.26577
3.21447
3.05453
2.81749
2.4368
1.73337
0.732525
0.126205
0.800204
0.913522
1.04058
1.30016
1.02005
0.580433
3.16307
4.20975
4.39254
4.31945
4.07568
3.62873
2.83425
1.70028
0.619863
0.215965
0.30956
1.37258
1.85192
1.97803
2.00682
1.84455
1.28375
0.569593
3.50341
5.04322
5.47165
5.51937
5.30717
4.84206
4.04
2.97625
1.73421
1.15721
0.876528
0.954295
1.61725
2.20298
2.64685
2.73365
2.63267
2.28105
1.54904
0.545352
3.86572
5.82089
6.45486
6.62614
6.46623
6.01471
5.24679
4.23162
3.22235
2.62774
2.35809
2.42122
2.64507
3.11593
3.43148
3.42974
3.18472
2.63062
1.72609
0.513701
4.25298
6.58151
7.36002
7.63632
7.53386
7.11401
6.39838
5.46156
4.51995
3.89266
3.58034
3.5566
3.70303
4.01364
4.17613
4.0589
3.6684
2.96365
1.87878
0.487484
4.65844
7.34314
8.20416
8.55649
8.50578
8.12472
7.46628
6.61197
5.74715
5.11901
4.76763
4.65611
4.70249
4.85059
4.86352
4.62317
4.09292
3.24104
2.02377
0.469673
5.07148
8.10825
8.99839
9.39489
9.38353
9.04043
8.43505
7.65428
6.85865
6.24074
5.8538
5.66306
5.59803
5.60528
5.48884
5.12703
4.46668
3.4745
2.15531
0.460333
5.48208
8.87164
9.74766
10.158
10.1707
9.85898
9.29768
8.57587
7.83524
7.22875
6.81127
6.5598
6.40264
6.28476
6.05019
5.57452
4.796
3.68083
2.2778
0.463095
5.88189
9.62518
10.4521
10.8495
10.8708
10.5808
10.0307
9.23331
8.46906
7.85319
7.42428
7.16827
7.06865
6.87593
6.54657
5.96854
5.08517
3.86437
2.38973
0.470031
6.26374
10.3594
11.1082
11.4701
11.486
11.1829
10.4677
9.68264
8.94471
8.33708
7.90068
7.62298
7.52119
7.33201
6.97819
6.31065
5.3367
4.02781
2.49559
0.477819
6.62069
11.0636
11.7093
12.0184
12.0178
11.5737
10.8352
10.059
9.34118
8.74323
8.30068
8.01316
7.88621
7.71928
7.3458
6.60164
5.55182
4.17244
2.59725
0.484743
6.9452
11.7244
12.2462
12.4903
12.4657
11.8997
11.1368
10.3682
9.66586
9.07668
8.62993
8.33278
8.19204
8.04266
7.65112
6.84425
5.73121
4.29836
2.69571
0.489756
7.22846
12.3244
12.7064
12.8804
12.8281
12.1578
11.3754
10.6132
9.92286
9.34042
8.89081
8.58645
8.43519
8.30184
7.89591
7.03906
5.87498
4.40457
2.7746
0.492028
7.45969
12.8391
13.0752
13.1817
13.073
12.3524
11.5538
10.7953
10.1138
9.53642
9.08489
8.77556
8.61675
8.49714
8.07996
7.18556
5.98268
4.48891
2.83996
0.491045
7.62624
13.2341
13.336
13.3875
13.2222
12.4809
11.6722
10.9158
10.2401
9.66604
9.21348
8.9009
8.73682
8.62722
8.20317
7.28344
6.05401
4.54816
2.88883
0.488678
7.71495
13.4606
13.4721
13.4921
13.2957
12.5437
11.7305
10.9756
10.3033
9.73124
9.27878
8.96548
8.79972
8.69737
8.26559
7.33283
6.08936
4.57876
2.9202
0.499813
0.509395
0.46848
0.415949
0.371454
0.216702
0.201347
1.16845
1.85085
1.62843
1.44485
1.2698
1.09365
0.719493
0.211833
0.115677
0.166069
0.25186
0.417145
0.370003
0.446838
2.83317
3.26639
3.2153
3.05512
2.81832
2.43865
1.74402
0.744959
0.128543
0.799754
0.913491
1.04063
1.30013
1.02007
0.588886
3.16342
4.21088
4.39409
4.32099
4.07738
3.63051
2.83937
1.70378
0.627761
0.221112
0.311636
1.38164
1.85189
1.97792
2.00675
1.84461
1.28071
0.575063
3.50318
5.04419
5.47302
5.52087
5.30878
4.84362
4.04189
2.97627
1.73589
1.16231
0.883772
0.958792
1.62374
2.209
2.64682
2.73367
2.63268
2.27907
1.5446
0.551801
3.86548
5.82159
6.45583
6.62724
6.46747
6.01618
5.24816
4.23261
3.22286
2.62938
2.36045
2.42448
2.64995
3.11734
3.43119
3.42975
3.18475
2.62712
1.71988
0.520347
4.25287
6.58207
7.36068
7.63709
7.53479
7.11535
6.39958
5.46278
4.52121
3.89458
3.58231
3.55806
3.70486
4.01323
4.1757
4.05886
3.66842
2.95836
1.87111
0.489528
4.65843
7.34365
8.20466
8.55705
8.50648
8.12584
7.46728
6.61304
5.74843
5.12066
4.76913
4.65651
4.7032
4.85067
4.86342
4.62311
4.09293
3.24117
2.01533
0.47147
5.07157
8.10876
8.99879
9.39533
9.38408
9.0413
8.43584
7.6551
6.85963
6.24196
5.85489
5.66317
5.59855
5.60589
5.48892
5.12698
4.46671
3.47459
2.1485
0.463563
5.48224
8.87216
9.74801
10.1584
10.1712
9.85966
9.2983
8.57647
7.83594
7.22961
6.81206
6.55988
6.40304
6.28534
6.05028
5.57446
4.79604
3.68092
2.26913
0.466497
5.88207
9.6257
10.4524
10.8498
10.8712
10.5813
10.0306
9.23333
8.46925
7.85359
7.42485
7.16874
7.06962
6.87681
6.54661
5.96845
5.08521
3.86446
2.38068
0.473688
6.26392
10.36
11.1085
11.4705
11.4864
11.1829
10.4677
9.68271
8.94491
8.33745
7.90121
7.62345
7.52193
7.3329
6.97821
6.31052
5.33674
4.02789
2.486
0.481778
6.62091
11.0641
11.7096
12.0187
12.0181
11.5737
10.8352
10.0591
9.34141
8.74359
8.30117
8.01367
7.88683
7.72004
7.34581
6.60148
5.55183
4.1725
2.58693
0.489012
6.94546
11.7249
12.2464
12.4905
12.4659
11.8997
11.1369
10.3683
9.66611
9.07704
8.63038
8.3333
8.19266
8.04328
7.65113
6.8441
5.73122
4.29842
2.68527
0.494314
7.2287
12.3248
12.7066
12.8805
12.8282
12.1578
11.3755
10.6133
9.9231
9.34076
8.89124
8.58696
8.43581
8.30237
7.89598
7.03894
5.87498
4.40463
2.77823
0.496834
7.45991
12.8395
13.0753
13.1817
13.073
12.3524
11.5539
10.7955
10.114
9.53673
9.08526
8.77594
8.61724
8.49756
8.08005
7.18547
5.98269
4.489
2.84395
0.496108
7.62652
13.2345
13.336
13.3875
13.2221
12.4809
11.6722
10.9159
10.2402
9.66624
9.21369
8.90109
8.73702
8.62719
8.20325
7.28338
6.05404
4.54824
2.89325
0.494245
7.71518
13.4609
13.4721
13.492
13.2957
12.5436
11.7305
10.9756
10.3033
9.73138
9.27894
8.9656
8.79983
8.69731
8.26566
7.33279
6.08939
4.57893
2.92416
0.503586
0.511043
0.476236
0.422714
0.378128
0.222023
0.20583
1.1666
1.85536
1.63197
1.44969
1.27257
1.09807
0.730504
0.223971
0.115667
0.166069
0.25184
0.417089
0.369977
0.440655
2.83375
3.26736
3.21647
3.0561
2.81948
2.44097
1.755
0.758487
0.130691
0.799427
0.913453
1.04066
1.30017
1.02018
0.58947
3.16383
4.212
4.39563
4.32256
4.0791
3.63253
2.84514
1.70891
0.634738
0.225487
0.314193
1.39061
1.85204
1.97788
2.0067
1.84463
1.26675
0.572589
3.50316
5.04517
5.47442
5.52242
5.31046
4.8453
4.0443
2.97694
1.73831
1.1676
0.890783
0.96404
1.63053
2.21524
2.64695
2.73371
2.63269
2.27941
1.52673
0.551368
3.86535
5.82236
6.45688
6.62846
6.46884
6.01771
5.24968
4.23368
3.22384
2.63154
2.36335
2.42797
2.65499
3.11943
3.43106
3.42979
3.18478
2.62674
1.69693
0.519102
4.25277
6.58272
7.36145
7.638
7.53587
7.11674
6.40086
5.46402
4.52255
3.89663
3.5845
3.55984
3.70708
4.01338
4.17544
4.05886
3.66846
2.95708
1.86319
0.490549
4.65845
7.34424
8.20524
8.55773
8.50731
8.12703
7.46838
6.61417
5.74977
5.12239
4.77075
4.65719
4.70412
4.85089
4.8634
4.6231
4.09295
3.24123
2.00785
0.472198
5.07165
8.10932
8.99926
9.39586
9.38474
9.04225
8.43673
7.65601
6.8607
6.24326
5.85606
5.66346
5.59914
5.60646
5.48906
5.12696
4.46674
3.47463
2.13892
0.465199
5.48235
8.87271
9.74843
10.1588
10.1717
9.86041
9.29901
8.57716
7.83673
7.23056
6.81292
6.5601
6.40353
6.2859
6.05043
5.57443
4.79608
3.68097
2.25799
0.468279
5.88224
9.62625
10.4528
10.8502
10.8716
10.5819
10.0306
9.23353
8.46969
7.85425
7.42562
7.16946
7.07077
6.878
6.54673
5.96839
5.08524
3.86454
2.36834
0.475628
6.26413
10.3605
11.1089
11.4708
11.4868
11.183
10.4678
9.68292
8.94529
8.33801
7.90189
7.62415
7.5229
7.33404
6.97829
6.31044
5.33675
4.02797
2.47249
0.483911
6.62109
11.0646
11.71
12.019
12.0184
11.5739
10.8353
10.0593
9.34176
8.74409
8.30179
8.01435
7.88771
7.72108
7.34587
6.60137
5.55183
4.17257
2.57219
0.49136
6.94567
11.7254
12.2466
12.4907
12.4661
11.8998
11.137
10.3686
9.66647
9.07752
8.63098
8.33398
8.1935
8.04423
7.6512
6.844
5.7312
4.29848
2.66934
0.496892
7.22891
12.3253
12.7067
12.8806
12.8284
12.1579
11.3756
10.6136
9.92347
9.34123
8.8918
8.58764
8.43664
8.30326
7.89606
7.03885
5.87497
4.40467
2.7676
0.49967
7.46009
12.8399
13.0754
13.1818
13.073
12.3525
11.5541
10.7957
10.1143
9.53717
9.08581
8.77656
8.61797
8.49838
8.08014
7.18541
5.98268
4.48904
2.84783
0.499266
7.62672
13.2348
13.3361
13.3875
13.2221
12.481
11.6724
10.916
10.2405
9.66662
9.21414
8.90161
8.73762
8.62772
8.20333
7.28334
6.05404
4.54833
2.89695
0.497549
7.71538
13.4612
13.4722
13.492
13.2956
12.5436
11.7306
10.9757
10.3034
9.73157
9.27914
8.96583
8.80013
8.69756
8.26572
7.33277
6.08941
4.57907
2.92519
0.493499
0.512532
0.482889
0.428592
0.38382
0.226768
0.209786
1.16485
1.86037
1.63606
1.45501
1.2757
1.10286
0.742175
0.235592
0.115641
0.166065
0.251829
0.417064
0.370034
0.437602
2.83415
3.26866
3.21801
3.05751
2.82098
2.4438
1.7664
0.772601
0.132618
0.799222
0.913421
1.04071
1.30024
1.02022
0.5882
3.16419
4.21317
4.39722
4.3242
4.08091
3.6348
2.85152
1.71544
0.640821
0.229109
0.316947
1.3994
1.85236
1.9779
2.00672
1.84467
1.25174
0.572124
3.50316
5.04616
5.47583
5.52399
5.31218
4.84713
4.0472
2.97828
1.74123
1.17288
0.897362
0.969645
1.63752
2.22167
2.64725
2.73379
2.63274
2.28123
1.50686
0.552372
3.86525
5.82316
6.45798
6.62974
6.47028
6.01931
5.25142
4.23494
3.22527
2.63415
2.36665
2.43172
2.66024
3.12211
3.43108
3.42986
3.18483
2.6289
1.67391
0.518874
4.25274
6.58339
7.36229
7.63898
7.53702
7.11817
6.40225
5.46533
4.52403
3.89886
3.58692
3.56195
3.70965
4.01404
4.17531
4.05889
3.66848
2.95961
1.83095
0.484919
4.65848
7.34486
8.2059
8.55849
8.50823
8.12825
7.46954
6.61535
5.75116
5.12421
4.77249
4.65812
4.70527
4.85127
4.86343
4.62311
4.09295
3.24108
1.97143
0.465909
5.07173
8.10993
8.99981
9.39647
9.38548
9.04325
8.43769
7.65698
6.86183
6.24462
5.8573
5.6639
5.59982
5.60699
5.48923
5.12696
4.46673
3.47444
2.09812
0.459522
5.48251
8.8733
9.74891
10.1593
10.1723
9.86119
9.29977
8.57791
7.83758
7.23155
6.81381
6.56042
6.40405
6.28643
6.05062
5.57442
4.79605
3.68077
2.21275
0.46252
5.88242
9.62682
10.4533
10.8506
10.8721
10.5825
10.0309
9.23394
8.47032
7.85509
7.42658
7.17045
7.07215
6.87964
6.54688
5.96835
5.08519
3.86434
2.31904
0.469776
6.26428
10.361
11.1093
11.4712
11.4872
11.1832
10.4681
9.68331
8.94586
8.33876
7.90276
7.62506
7.52422
7.33571
6.9784
6.31036
5.33669
4.02777
2.41896
0.477968
6.62127
11.0652
11.7103
12.0193
12.0187
11.574
10.8356
10.0597
9.3423
8.74476
8.30257
8.01525
7.88895
7.72275
7.34595
6.60127
5.55175
4.17237
2.51432
0.485306
6.94585
11.7259
12.2469
12.491
12.4663
11.8999
11.1373
10.369
9.66696
9.07816
8.63174
8.33487
8.19473
8.04587
7.65127
6.8439
5.73111
4.29826
2.607
0.490675
7.22907
12.3257
12.707
12.8807
12.8285
12.1581
11.3759
10.6139
9.92393
9.34183
8.89253
8.58854
8.43787
8.30492
7.89613
7.03877
5.87487
4.40443
2.70069
0.493217
7.46027
12.8403
13.0756
13.1819
13.0731
12.3526
11.5543
10.796
10.1148
9.53773
9.08651
8.77743
8.61918
8.50004
8.08021
7.18534
5.98258
4.48876
2.80256
0.492441
7.62686
13.2351
13.3362
13.3876
13.2222
12.4811
11.6726
10.9164
10.2409
9.66713
9.21477
8.9024
8.73874
8.62925
8.2034
7.28328
6.05394
4.54815
2.89729
0.489752
7.71553
13.4615
13.4722
13.4921
13.2956
12.5436
11.7306
10.9758
10.3036
9.73187
9.27951
8.96622
8.80063
8.69815
8.26578
7.33273
6.08934
4.57893
2.92546
0.489183
0.513858
0.488597
0.433702
0.388692
0.230882
0.213208
1.16332
1.86566
1.64054
1.46061
1.27906
1.10783
0.754108
0.246408
0.1156
0.166059
0.251825
0.417056
0.370118
0.438722
2.8344
3.27032
3.21991
3.05933
2.8228
2.44712
1.77821
0.786914
0.134345
0.799145
0.9134
1.04077
1.30029
1.01998
0.582347
3.16454
4.21441
4.3989
4.32595
4.08281
3.63736
2.85848
1.72304
0.646117
0.232066
0.319709
1.40791
1.85282
1.97796
2.00678
1.84473
1.23877
0.571719
3.50324
5.04717
5.47728
5.52561
5.31395
4.84911
4.05059
2.98027
1.74446
1.178
0.903414
0.975301
1.64462
2.22822
2.6477
2.7339
2.63281
2.28311
1.48891
0.553068
3.86522
5.82399
6.45913
6.63109
6.47179
6.02098
5.25339
4.23644
3.2271
2.63711
2.37028
2.43573
2.66566
3.12525
3.43125
3.42995
3.18489
2.63091
1.65069
0.517822
4.25274
6.58411
7.36319
7.64004
7.53825
7.11963
6.40372
5.46672
4.52566
3.90128
3.58958
3.56436
3.71256
4.01515
4.17532
4.05894
3.6685
2.96119
1.80057
0.483663
4.65853
7.34552
8.20661
8.55932
8.50922
8.1295
7.47076
6.61658
5.75262
5.12614
4.77437
4.65933
4.70665
4.85183
4.86352
4.62314
4.09295
3.24087
1.93778
0.464416
5.07184
8.11055
9.00041
9.39713
9.38627
9.04427
8.43869
7.65799
6.86301
6.24607
5.85862
5.66452
5.6006
5.60755
5.48942
5.12697
4.4667
3.4742
2.06054
0.458264
5.48263
8.8739
9.74943
10.1599
10.173
9.86201
9.30057
8.57871
7.83848
7.2326
6.81475
6.56082
6.40463
6.28695
6.05082
5.5744
4.796
3.68053
2.17084
0.461214
5.88255
9.62739
10.4537
10.8511
10.8726
10.5831
10.0312
9.23439
8.47103
7.85601
7.4276
7.17153
7.0737
6.88164
6.54705
5.9683
5.08512
3.8641
2.27304
0.468361
6.26443
10.3616
11.1097
11.4716
11.4876
11.1835
10.4684
9.68373
8.94647
8.33956
7.9037
7.62613
7.52575
7.33783
6.97853
6.31028
5.33659
4.02753
2.36897
0.476439
6.62143
11.0657
11.7107
12.0196
12.019
11.5743
10.8359
10.0601
9.34286
8.74549
8.30347
8.01631
7.89048
7.72493
7.34604
6.60116
5.55162
4.17213
2.46028
0.483645
6.94598
11.7263
12.2472
12.4912
12.4666
11.9001
11.1376
10.3693
9.6675
9.07885
8.6326
8.33593
8.19627
8.04814
7.65134
6.84378
5.73096
4.29801
2.54881
0.488844
7.22923
12.3261
12.7072
12.8809
12.8286
12.1582
11.3761
10.6143
9.92445
9.3425
8.89337
8.58961
8.43944
8.30726
7.89619
7.03866
5.87472
4.40415
2.63816
0.49117
7.46039
12.8407
13.0758
13.1819
13.0732
12.3528
11.5545
10.7964
10.1153
9.53838
9.08733
8.7785
8.62078
8.50244
8.08027
7.18525
5.98243
4.48848
2.73515
0.490065
7.627
13.2354
13.3363
13.3876
13.2223
12.4812
11.6728
10.9167
10.2413
9.66777
9.2156
8.90348
8.74037
8.63175
8.20344
7.28319
6.05379
4.5479
2.85082
0.48666
7.71565
13.4618
13.4723
13.4921
13.2956
12.5436
11.7307
10.976
10.3039
9.73217
9.27986
8.96658
8.80123
8.69909
8.26582
7.33266
6.0892
4.57862