/*--------------------------------*- C++ -*----------------------------------*\
  =========                 |
  \\      /  F ield         | OpenFOAM: The Open Source CFD Toolbox
   \\    /   O peration     | Website:  https://openfoam.org
    \\  /    A nd           | Version:  10
     \\/     M anipulation  |
\*---------------------------------------------------------------------------*/
FoamFile
{
    format      ascii;
    class       volScalarField;
    location    "2000";
    object      omega;
}
// * * * * * * * * * * * * * * * * * * * * * * * * * * * * * * * * * * * * * //

dimensions      [0 0 -1 0 0 0 0];

internalField   nonuniform List<scalar> 
52338
(
1.08077
1.41798
1.30822
1.56113
2.06019
2.58869
0.659172
0.334615
0.298492
0.29267
0.301927
0.323349
0.500546
1.94971
1.48266
1.04084
0.586273
0.330855
0.352403
0.300508
0.337025
0.205539
0.170053
0.157617
0.155071
0.163717
0.217892
0.505344
3.21421
0.236808
0.196715
0.168524
0.145128
0.176059
0.292835
0.301697
0.176758
0.139647
0.125515
0.120681
0.123525
0.143941
0.22368
0.621805
2.40218
0.75165
0.236673
0.120605
0.108613
0.105903
0.115885
0.155937
0.293806
0.276817
0.15991
0.123171
0.108404
0.102516
0.102925
0.112853
0.141068
0.220846
0.314355
0.400512
0.307761
0.203341
0.121601
0.0946673
0.0878084
0.0889545
0.101012
0.140219
0.283492
0.254022
0.148125
0.112973
0.0981714
0.0917745
0.0908256
0.0961293
0.110316
0.133397
0.150091
0.152277
0.137951
0.118219
0.0940148
0.0805929
0.0765195
0.0791788
0.0916914
0.12979
0.27608
0.231309
0.138665
0.105908
0.0914702
0.0848644
0.0830684
0.0857588
0.0935069
0.104938
0.112443
0.11213
0.103514
0.0926768
0.0800897
0.0719329
0.0694273
0.0727311
0.0850964
0.121749
0.273488
0.209721
0.13048
0.100553
0.0867464
0.0801251
0.0778172
0.0789925
0.0833765
0.0895011
0.0931662
0.0921752
0.0865618
0.0794005
0.071509
0.0660911
0.0645101
0.0680797
0.0801012
0.114688
0.267728
0.190373
0.123201
0.0962253
0.0832136
0.0767066
0.0740714
0.0743003
0.0767784
0.0801952
0.0819923
0.0807554
0.0765854
0.0712877
0.065651
0.0617515
0.0608628
0.064516
0.076148
0.108658
0.263316
0.173572
0.116687
0.0925796
0.0804475
0.0741427
0.0713233
0.0709417
0.0722612
0.0741672
0.0749403
0.073579
0.0701773
0.0658362
0.0614554
0.058486
0.0580372
0.0616816
0.0729268
0.103575
0.261202
0.159139
0.110868
0.0894372
0.0782103
0.0721623
0.0692531
0.0684647
0.0690354
0.0700157
0.070163
0.0687219
0.0656746
0.0620102
0.0583679
0.0559669
0.0557923
0.0593796
0.0702429
0.0991831
0.259124
0.146747
0.105696
0.086706
0.0763664
0.0706037
0.0676645
0.0665911
0.0666558
0.0670241
0.0667591
0.0652629
0.0625092
0.0591629
0.0560402
0.053996
0.0539891
0.0574946
0.0679756
0.0953733
0.256998
0.136062
0.101134
0.0843343
0.0748402
0.0693692
0.0664371
0.0651589
0.0648677
0.0648309
0.0642862
0.062746
0.0601806
0.0570985
0.0542634
0.0524494
0.0525415
0.0559556
0.0660474
0.0920676
0.254976
0.126795
0.097157
0.0823064
0.0735732
0.0683878
0.0654824
0.0640764
0.06354
0.0632228
0.062484
0.0609081
0.0584609
0.0555606
0.0529125
0.0512533
0.0514035
0.0547168
0.0644103
0.0891879
0.253052
0.118708
0.093768
0.0806255
0.0725665
0.0676291
0.0647655
0.0632736
0.0625696
0.0620601
0.0611869
0.0595833
0.0572116
0.0544333
0.0519069
0.0503436
0.050521
0.0537506
0.0630429
0.0866675
0.251133
0.111614
0.0910015
0.0793122
0.0718069
0.0670698
0.064246
0.062704
0.06189
0.0612528
0.060289
0.0586652
0.0563408
0.0536415
0.0511926
0.0496854
0.0498742
0.0530387
0.0619474
0.0844698
0.249059
0.105427
0.0889478
0.0783978
0.0712956
0.0667007
0.0639072
0.0623382
0.0614579
0.0607426
0.0597221
0.0580839
0.0557894
0.0531375
0.0507344
0.0492585
0.0494517
0.0525711
0.0611581
0.0826703
0.246184
0.100522
0.0877838
0.077923
0.0710374
0.0665158
0.063739
0.0621586
0.0612476
0.0604952
0.0594473
0.0578035
0.0555225
0.0528929
0.0505111
0.0490488
0.0492442
0.0523418
0.0607321
0.0814937
0.238405
1.06285
1.18015
1.09278
1.11147
1.73639
1.73831
0.659668
0.327848
0.29125
0.2863
0.294911
0.313565
0.439771
1.42435
1.48169
1.04124
0.58752
0.331271
0.353039
0.301709
0.335998
0.205334
0.16984
0.157457
0.154937
0.162997
0.21356
0.452834
2.15106
0.237398
0.197181
0.168963
0.14526
0.176232
0.293785
0.301682
0.176622
0.13952
0.125389
0.12055
0.12326
0.143543
0.211733
0.565534
1.70519
0.770879
0.176071
0.120878
0.10873
0.105992
0.115965
0.156008
0.294993
0.27679
0.159835
0.123109
0.108343
0.102451
0.10276
0.112636
0.140784
0.216241
0.303682
0.356268
0.293491
0.170428
0.12057
0.094791
0.0878635
0.0889936
0.101045
0.140193
0.279653
0.253982
0.148074
0.112937
0.0981369
0.0917376
0.0907246
0.0959587
0.110147
0.133267
0.149809
0.151633
0.136448
0.116607
0.0937165
0.0806646
0.0765442
0.0791973
0.0917076
0.129742
0.271733
0.231254
0.138625
0.105884
0.091448
0.0848414
0.0830245
0.0857034
0.0934546
0.104836
0.11229
0.111822
0.103102
0.092002
0.0796166
0.0718497
0.0694378
0.0727407
0.085106
0.121695
0.268451
0.209657
0.130448
0.100536
0.086731
0.0801099
0.0777876
0.0789549
0.0833467
0.0894511
0.0930979
0.0920206
0.0863122
0.0789938
0.0711501
0.0659772
0.064516
0.0680851
0.0801072
0.114668
0.263063
0.190307
0.123174
0.096212
0.0832025
0.0766962
0.0740549
0.0742798
0.0767604
0.0801684
0.0819555
0.0806672
0.076425
0.0711211
0.0654712
0.0616731
0.0608664
0.0645192
0.0761513
0.108628
0.258839
0.173507
0.116666
0.0925692
0.0804395
0.0741355
0.0713125
0.0709284
0.0722496
0.0741504
0.0749178
0.0735235
0.0700075
0.065713
0.0613544
0.058432
0.0580396
0.0616838
0.0729285
0.103529
0.256632
0.159076
0.110852
0.0894293
0.0782045
0.0721573
0.0692472
0.068458
0.0690271
0.0700036
0.0701484
0.0686874
0.0656186
0.0619542
0.058301
0.05593
0.055794
0.0593813
0.0702442
0.0991364
0.254631
0.146685
0.105684
0.0866992
0.0763619
0.0705999
0.0676618
0.0665874
0.0666485
0.0670156
0.0667493
0.0652405
0.0624744
0.0591385
0.0559947
0.0539715
0.0539907
0.0574958
0.0679767
0.0953322
0.252632
0.135999
0.101124
0.0843297
0.0748345
0.0693653
0.0664342
0.0651579
0.0648649
0.0648254
0.0642799
0.0627318
0.060159
0.0570831
0.0542321
0.0524345
0.052544
0.0559566
0.0660486
0.0920334
0.250721
0.126731
0.0971509
0.0823033
0.0735725
0.0683868
0.0654829
0.0640758
0.0635382
0.0632193
0.06248
0.0608994
0.058448
0.0555505
0.0528915
0.0512378
0.0514012
0.0547178
0.0644116
0.089159
0.248884
0.118643
0.0937643
0.0806239
0.0725661
0.0676291
0.0647661
0.0632733
0.0625686
0.0620582
0.0611846
0.0595784
0.0572042
0.0544269
0.0518937
0.0503335
0.0505185
0.0537515
0.0630442
0.0866437
0.247025
0.111548
0.0909999
0.0793114
0.0718067
0.06707
0.0642465
0.0627039
0.0618895
0.0612518
0.0602877
0.0586624
0.056337
0.0536379
0.0511851
0.0496807
0.0498734
0.0530395
0.0619493
0.0844554
0.244987
0.105358
0.0889481
0.0783976
0.0712956
0.0667008
0.0639074
0.0623382
0.0614578
0.0607422
0.0597217
0.0580833
0.0557878
0.0531358
0.0507308
0.0492571
0.049452
0.0525718
0.0611598
0.0826598
0.242126
0.10045
0.0877862
0.0779235
0.0710376
0.0665158
0.0637392
0.0621587
0.0612477
0.0604953
0.0594476
0.0578035
0.0555222
0.0528924
0.0505099
0.0490489
0.0492446
0.052342
0.0607325
0.0814921
0.234219
1.04987
1.1154
1.03502
1.03726
1.59965
1.60489
0.658238
0.327188
0.290387
0.285653
0.294646
0.312475
0.429512
1.21955
1.48184
1.04154
0.588011
0.331545
0.353178
0.302467
0.335414
0.205302
0.169796
0.157471
0.15497
0.162922
0.21139
0.442788
1.77686
0.237693
0.197406
0.169148
0.145298
0.176303
0.294584
0.301721
0.176593
0.139498
0.12538
0.120554
0.123316
0.143629
0.212481
0.556936
1.59963
0.765534
0.174089
0.120968
0.108787
0.106045
0.115999
0.156098
0.296727
0.276826
0.159825
0.123106
0.108344
0.102459
0.102784
0.112734
0.140839
0.216552
0.301538
0.351566
0.290023
0.169154
0.120304
0.094871
0.087899
0.0890212
0.10107
0.140238
0.280942
0.253998
0.148071
0.112939
0.0981397
0.0917427
0.0907315
0.0959751
0.11017
0.133293
0.149729
0.15152
0.136048
0.116522
0.09385
0.0807001
0.0765635
0.0792136
0.0917228
0.129778
0.272594
0.23125
0.138623
0.105885
0.0914495
0.0848443
0.0830251
0.0857091
0.0934699
0.104836
0.112262
0.111792
0.103161
0.0920826
0.0796944
0.0718817
0.0694496
0.0727503
0.0851159
0.121715
0.268746
0.209639
0.130446
0.100536
0.0867315
0.0801113
0.0777867
0.0789561
0.083353
0.0894538
0.0930944
0.0920161
0.0863395
0.0790163
0.0711535
0.0659724
0.0645245
0.068091
0.0801141
0.114711
0.263502
0.190279
0.123172
0.0962124
0.0832024
0.0766968
0.0740556
0.0742804
0.0767631
0.0801718
0.0819565
0.0806658
0.076436
0.0711196
0.0654553
0.0616715
0.0608725
0.064523
0.0761553
0.108665
0.259423
0.173474
0.116663
0.0925694
0.0804392
0.0741356
0.0713129
0.0709276
0.0722509
0.0741523
0.0749181
0.073522
0.0700143
0.0657237
0.0613622
0.0584299
0.0580437
0.0616863
0.0729298
0.103543
0.257035
0.159039
0.11085
0.0894293
0.0782041
0.0721572
0.0692466
0.0684565
0.0690275
0.0700041
0.0701481
0.0686864
0.0656178
0.0619329
0.0583046
0.0559279
0.0557968
0.0593828
0.0702444
0.0991449
0.254956
0.146644
0.105682
0.0866985
0.0763612
0.0705993
0.0676616
0.066587
0.0666473
0.067015
0.0667487
0.0652394
0.0624727
0.0591401
0.0559958
0.0539695
0.0539928
0.0574968
0.0679766
0.0953462
0.252937
0.135956
0.101123
0.0843289
0.0748325
0.069364
0.0664334
0.0651582
0.0648649
0.0648247
0.0642792
0.0627309
0.0601573
0.0570831
0.0542322
0.0524332
0.052547
0.0559576
0.0660483
0.092051
0.251016
0.126686
0.0971492
0.0823029
0.0735727
0.068387
0.0654833
0.064076
0.0635382
0.0632187
0.0624793
0.0608988
0.058447
0.0555502
0.0528914
0.0512375
0.0514027
0.0547188
0.0644113
0.0891797
0.24918
0.118597
0.0937628
0.0806239
0.0725664
0.0676298
0.0647658
0.0632733
0.0625685
0.0620577
0.0611841
0.0595779
0.0572037
0.0544267
0.0518937
0.0503324
0.0505193
0.0537524
0.0630442
0.0866675
0.247331
0.1115
0.0909987
0.0793114
0.0718068
0.0670704
0.0642462
0.0627038
0.0618894
0.0612515
0.0602873
0.058662
0.0563367
0.0536378
0.0511851
0.04968
0.0498741
0.0530402
0.0619511
0.08449
0.245306
0.105312
0.0889474
0.0783978
0.0712956
0.0667008
0.0639073
0.0623382
0.0614578
0.0607421
0.0597217
0.0580835
0.0557878
0.0531359
0.0507309
0.0492568
0.0494527
0.0525725
0.061163
0.0827018
0.242461
0.100404
0.0877865
0.0779239
0.0710376
0.0665158
0.0637392
0.0621588
0.0612478
0.0604954
0.0594479
0.0578039
0.0555224
0.0528926
0.0505103
0.0490491
0.049245
0.0523423
0.0607346
0.0815199
0.23459
1.04033
1.07214
0.996144
0.994704
1.55176
1.55931
0.657196
0.32637
0.289479
0.284635
0.293705
0.310732
0.420253
1.10725
1.48194
1.04159
0.588208
0.331714
0.353144
0.302399
0.334913
0.205249
0.16973
0.157443
0.154928
0.162765
0.209376
0.431235
1.6175
0.237796
0.197468
0.169187
0.145301
0.176302
0.294975
0.301716
0.176557
0.139465
0.125353
0.120529
0.123317
0.14353
0.212502
0.545828
1.56871
0.7604
0.172405
0.121012
0.108815
0.106072
0.116005
0.156238
0.298384
0.276853
0.159813
0.123098
0.108338
0.102454
0.102792
0.112774
0.140837
0.216416
0.299294
0.347185
0.288363
0.168055
0.119965
0.0949109
0.0879153
0.089035
0.101081
0.140368
0.283735
0.254011
0.148067
0.112937
0.0981392
0.0917433
0.0907334
0.0959822
0.110163
0.133279
0.149602
0.15135
0.135731
0.116358
0.093902
0.0807194
0.0765754
0.079224
0.0917319
0.129881
0.275048
0.231249
0.138621
0.105885
0.0914498
0.0848452
0.0830243
0.0857107
0.0934723
0.104821
0.112217
0.11175
0.10318
0.0921253
0.0797466
0.0718989
0.0694584
0.0727572
0.0851227
0.121801
0.270689
0.209625
0.130444
0.100537
0.0867316
0.0801119
0.0777853
0.0789556
0.083355
0.0894509
0.0930842
0.0920082
0.0863621
0.0790372
0.0711579
0.0659675
0.0645308
0.0680953
0.0801188
0.114812
0.265519
0.190259
0.123169
0.0962127
0.0832022
0.076697
0.0740555
0.0742799
0.0767643
0.0801728
0.0819549
0.0806643
0.0764475
0.0711222
0.0654462
0.0616676
0.0608769
0.0645257
0.0761578
0.108752
0.261408
0.173449
0.11666
0.0925695
0.0804388
0.0741357
0.071313
0.0709267
0.0722516
0.0741535
0.0749178
0.0735214
0.0700223
0.0657301
0.0613677
0.0584271
0.0580468
0.061688
0.0729302
0.103611
0.258828
0.159012
0.110847
0.0894291
0.0782037
0.072157
0.0692461
0.0684552
0.0690275
0.0700044
0.0701477
0.0686858
0.0656199
0.0619224
0.0583085
0.0559257
0.0557988
0.0593837
0.0702437
0.0992044
0.256633
0.146615
0.105679
0.0866979
0.0763604
0.0705988
0.0676612
0.0665865
0.0666465
0.0670145
0.066748
0.0652387
0.0624722
0.0591402
0.0559983
0.0539677
0.0539944
0.0574974
0.0679756
0.0954036
0.254549
0.135927
0.10112
0.0843282
0.0748311
0.0693631
0.0664328
0.0651582
0.0648647
0.0648241
0.0642785
0.0627303
0.0601564
0.0570836
0.0542337
0.0524317
0.052549
0.0559582
0.0660472
0.0921089
0.252583
0.126657
0.0971468
0.0823024
0.0735726
0.068387
0.0654833
0.0640761
0.0635381
0.0632182
0.0624787
0.0608983
0.0584465
0.0555505
0.0528923
0.0512366
0.0514037
0.0547195
0.0644101
0.0892378
0.250714
0.118567
0.0937606
0.0806237
0.0725666
0.0676302
0.0647656
0.0632733
0.0625684
0.0620573
0.0611836
0.0595775
0.0572034
0.0544269
0.0518943
0.0503313
0.0505197
0.0537528
0.0630434
0.0867262
0.248843
0.111472
0.0909967
0.0793113
0.0718069
0.0670707
0.064246
0.0627038
0.0618893
0.0612513
0.060287
0.0586617
0.0563366
0.0536379
0.0511855
0.0496791
0.0498743
0.0530406
0.0619514
0.0845499
0.246797
0.105284
0.088946
0.0783979
0.0712957
0.0667009
0.0639073
0.0623382
0.0614578
0.0607421
0.0597217
0.0580836
0.0557879
0.0531361
0.0507313
0.0492564
0.0494529
0.0525728
0.0611652
0.0827663
0.243931
0.10038
0.0877857
0.0779242
0.0710377
0.0665158
0.0637392
0.0621589
0.0612479
0.0604955
0.0594481
0.0578041
0.0555226
0.0528929
0.0505107
0.0490491
0.0492451
0.0523426
0.0607381
0.0815886
0.236353
1.03416
1.0452
0.971593
0.969835
1.53753
1.5454
0.656409
0.325375
0.28845
0.283378
0.292545
0.308748
0.411601
1.0439
1.48188
1.04157
0.588263
0.331815
0.3531
0.301918
0.334498
0.205174
0.169646
0.157387
0.154852
0.162561
0.207504
0.419345
1.5442
0.237828
0.197479
0.169183
0.145299
0.176292
0.277707
0.301682
0.176513
0.13942
0.125313
0.120486
0.123278
0.143321
0.211997
0.535866
1.55944
0.756399
0.17091
0.12103
0.108828
0.106085
0.116001
0.156323
0.278724
0.276869
0.159794
0.123082
0.108322
0.102439
0.102783
0.112772
0.140799
0.216051
0.297164
0.343312
0.286541
0.167016
0.119588
0.0949297
0.0879211
0.0890404
0.101085
0.140538
0.285774
0.25402
0.148059
0.112932
0.098134
0.0917382
0.0907285
0.0959785
0.110138
0.133237
0.149441
0.151131
0.135423
0.116142
0.093902
0.0807311
0.076581
0.0792291
0.0917371
0.130017
0.277471
0.231245
0.138616
0.105883
0.0914477
0.0848432
0.0830204
0.0857072
0.0934643
0.104794
0.112157
0.111689
0.103164
0.0921327
0.0797786
0.0719088
0.0694636
0.0727613
0.0851277
0.121906
0.272708
0.209613
0.13044
0.100536
0.0867304
0.080111
0.0777825
0.0789527
0.0833521
0.089441
0.0930652
0.0919921
0.0863742
0.0790499
0.0711611
0.0659629
0.0645346
0.0680982
0.0801223
0.114927
0.26756
0.190242
0.123166
0.0962121
0.0832014
0.0766965
0.0740543
0.074278
0.076763
0.0801701
0.0819492
0.0806597
0.0764558
0.0711243
0.0654397
0.0616627
0.0608797
0.0645274
0.0761597
0.108873
0.263614
0.17343
0.116657
0.092569
0.0804381
0.0741353
0.0713123
0.070925
0.0722509
0.0741528
0.0749158
0.0735198
0.0700281
0.0657327
0.0613699
0.0584238
0.0580488
0.0616889
0.0729311
0.103717
0.26088
0.158992
0.110844
0.0894286
0.078203
0.0721566
0.0692454
0.0684538
0.0690268
0.0700039
0.0701466
0.0686848
0.0656214
0.0619156
0.0583107
0.0559233
0.0558002
0.0593843
0.0702442
0.0993017
0.258572
0.146595
0.105676
0.0866971
0.0763595
0.0705981
0.0676606
0.0665856
0.0666456
0.0670137
0.066747
0.0652378
0.0624716
0.0591389
0.0559999
0.0539657
0.0539956
0.0574978
0.0679762
0.0954979
0.256419
0.135907
0.101117
0.0843274
0.07483
0.0693623
0.0664322
0.065158
0.0648643
0.0648234
0.0642776
0.0627295
0.0601555
0.0570834
0.0542347
0.0524302
0.0525503
0.0559585
0.0660478
0.0922029
0.254402
0.126638
0.0971438
0.0823019
0.0735723
0.0683868
0.0654831
0.064076
0.0635379
0.0632176
0.062478
0.0608978
0.0584458
0.0555505
0.052893
0.0512355
0.0514041
0.0547198
0.064411
0.0893311
0.252493
0.118549
0.0937578
0.0806234
0.0725667
0.0676304
0.0647654
0.0632732
0.0625683
0.0620569
0.0611832
0.0595771
0.057203
0.0544268
0.0518946
0.0503302
0.0505197
0.0537531
0.0630447
0.086817
0.250592
0.111455
0.0909943
0.0793112
0.071807
0.0670709
0.0642459
0.0627038
0.0618892
0.061251
0.0602868
0.0586615
0.0563364
0.053638
0.0511858
0.0496782
0.0498743
0.0530408
0.0619526
0.0846347
0.248527
0.105269
0.088944
0.0783978
0.0712957
0.0667009
0.0639072
0.0623382
0.0614578
0.060742
0.0597217
0.0580836
0.0557879
0.0531362
0.0507316
0.0492559
0.0494529
0.052573
0.0611668
0.0828448
0.245636
0.100366
0.0877843
0.0779243
0.0710378
0.0665158
0.0637392
0.062159
0.061248
0.0604956
0.0594483
0.0578043
0.0555227
0.0528931
0.0505109
0.0490489
0.049245
0.0523427
0.0607422
0.0816761
0.238235
1.03066
1.03001
0.957796
0.955558
1.53616
1.54279
0.655782
0.324269
0.287353
0.282036
0.291345
0.306783
0.403667
1.01428
1.48172
1.04157
0.588278
0.331882
0.353118
0.301081
0.334153
0.20508
0.169547
0.157309
0.15475
0.162328
0.205729
0.408357
1.50618
0.237824
0.197478
0.169169
0.145297
0.176299
0.269292
0.301631
0.176464
0.139369
0.125265
0.120432
0.123216
0.143042
0.211165
0.528281
1.55527
0.754019
0.169568
0.121032
0.108835
0.106092
0.115996
0.156349
0.269903
0.276875
0.159772
0.123061
0.108301
0.102416
0.102764
0.112739
0.140731
0.215578
0.295283
0.340102
0.284722
0.166046
0.119197
0.0949352
0.0879217
0.0890417
0.101085
0.14054
0.267792
0.254023
0.148048
0.112924
0.0981251
0.0917287
0.0907189
0.0959666
0.110103
0.133173
0.149256
0.150882
0.13512
0.115896
0.0938657
0.0807371
0.0765828
0.0792309
0.0917383
0.130006
0.261052
0.231238
0.138609
0.10588
0.0914435
0.0848388
0.0830141
0.0857001
0.0934497
0.104759
0.112085
0.111614
0.103122
0.0921128
0.0797948
0.0719141
0.0694663
0.0727636
0.0851297
0.121884
0.257074
0.209601
0.130434
0.100534
0.0867281
0.0801086
0.0777784
0.0789478
0.0833455
0.0894261
0.0930394
0.091969
0.0863759
0.0790544
0.0711624
0.0659583
0.0645365
0.0680998
0.0801248
0.114916
0.253147
0.190228
0.123161
0.0962107
0.0831999
0.0766951
0.0740522
0.0742749
0.0767597
0.0801644
0.0819398
0.0806519
0.0764604
0.071125
0.0654347
0.0616576
0.0608811
0.0645285
0.0761615
0.108984
0.265013
0.173415
0.116652
0.092568
0.080437
0.0741344
0.071311
0.0709228
0.0722491
0.0741505
0.074912
0.0735168
0.070032
0.065733
0.0613702
0.0584203
0.0580498
0.0616895
0.0729318
0.103827
0.262569
0.158977
0.110839
0.0894276
0.078202
0.0721558
0.0692444
0.0684521
0.0690255
0.0700025
0.0701446
0.068683
0.0656223
0.0619107
0.0583118
0.0559207
0.0558009
0.0593846
0.0702452
0.0994048
0.260186
0.146581
0.105672
0.086696
0.0763585
0.0705974
0.0676598
0.0665846
0.0666445
0.0670126
0.0667456
0.0652364
0.0624709
0.0591371
0.0560008
0.0539638
0.0539962
0.057498
0.0679774
0.0955977
0.257978
0.135893
0.101113
0.0843264
0.074829
0.0693616
0.0664316
0.0651575
0.0648637
0.0648225
0.0642765
0.0627285
0.0601545
0.0570829
0.0542353
0.0524287
0.0525509
0.0559587
0.0660493
0.0923012
0.255922
0.126625
0.0971406
0.0823011
0.0735719
0.0683866
0.0654828
0.0640758
0.0635376
0.0632169
0.0624773
0.0608971
0.0584451
0.0555503
0.0528934
0.0512344
0.0514043
0.0547201
0.0644129
0.089427
0.253983
0.118537
0.093755
0.0806229
0.0725666
0.0676304
0.0647652
0.0632731
0.062568
0.0620565
0.0611826
0.0595767
0.0572026
0.0544267
0.0518949
0.0503291
0.0505195
0.0537533
0.0630465
0.0869072
0.25206
0.111444
0.0909918
0.0793109
0.071807
0.067071
0.0642457
0.0627037
0.0618891
0.0612508
0.0602865
0.0586613
0.0563362
0.0536379
0.051186
0.0496774
0.049874
0.0530408
0.0619541
0.0847148
0.249963
0.105261
0.088942
0.0783977
0.0712957
0.066701
0.0639071
0.0623382
0.0614578
0.060742
0.0597216
0.0580837
0.0557878
0.0531362
0.0507317
0.0492554
0.0494526
0.052573
0.0611682
0.0829076
0.24668
0.100359
0.0877827
0.0779243
0.0710378
0.0665158
0.0637392
0.062159
0.0612481
0.0604957
0.0594485
0.0578045
0.0555228
0.0528932
0.0505111
0.0490487
0.0492448
0.0523426
0.0607448
0.0816241
0.226639
1.02909
1.02257
0.951215
0.947734
1.53798
1.54272
0.655267
0.323137
0.286259
0.28071
0.290206
0.304974
0.396621
1.00513
1.48149
1.04157
0.58829
0.331934
0.353197
0.301402
0.333862
0.204965
0.169429
0.15721
0.154629
0.162069
0.20402
0.398899
1.48321
0.237803
0.197474
0.169156
0.145298
0.176326
0.262433
0.301568
0.176411
0.139313
0.125212
0.120374
0.123138
0.142715
0.210132
0.523001
1.55161
0.75259
0.16837
0.121022
0.108837
0.106097
0.115993
0.156326
0.264427
0.276874
0.159748
0.123036
0.108276
0.10239
0.102737
0.112683
0.140636
0.215069
0.293733
0.337568
0.283081
0.16515
0.118807
0.0949318
0.0879202
0.0890418
0.101084
0.140478
0.259159
0.254023
0.148035
0.112913
0.0981135
0.0917164
0.0907058
0.0959484
0.110061
0.13309
0.149055
0.150617
0.13482
0.115636
0.0938034
0.0807388
0.0765827
0.0792315
0.091738
0.129937
0.252956
0.231231
0.138601
0.105874
0.0914378
0.0848326
0.0830061
0.0856903
0.0934307
0.104719
0.112007
0.111529
0.103062
0.092072
0.0797978
0.0719162
0.0694675
0.0727644
0.0851292
0.121806
0.249061
0.209589
0.130428
0.100531
0.0867249
0.0801052
0.0777734
0.0789416
0.0833362
0.0894076
0.0930088
0.0919401
0.0863687
0.0790514
0.0711619
0.0659539
0.0645374
0.0681002
0.0801253
0.114854
0.245661
0.190215
0.123155
0.0962087
0.0831978
0.0766931
0.0740493
0.0742709
0.0767549
0.0801564
0.0819275
0.0806413
0.0764616
0.071124
0.0654305
0.0616525
0.0608818
0.0645289
0.076164
0.10896
0.250649
0.173403
0.116648
0.0925665
0.0804356
0.074133
0.0713093
0.0709201
0.0722464
0.0741469
0.0749067
0.0735123
0.0700339
0.0657319
0.0613694
0.0584166
0.0580503
0.0616898
0.0729338
0.1038
0.248557
0.158966
0.110835
0.0894263
0.0782009
0.0721548
0.0692431
0.0684502
0.0690237
0.0700005
0.0701418
0.0686806
0.0656226
0.0619069
0.0583119
0.0559181
0.0558013
0.0593847
0.0702466
0.099365
0.246344
0.146571
0.105668
0.0866947
0.0763574
0.0705965
0.0676589
0.0665834
0.0666432
0.0670111
0.0667438
0.0652348
0.0624701
0.0591351
0.0560013
0.0539619
0.0539965
0.057498
0.0679789
0.0955493
0.244291
0.135884
0.101109
0.0843253
0.0748281
0.069361
0.0664309
0.0651569
0.0648629
0.0648214
0.0642753
0.0627273
0.0601535
0.057082
0.0542357
0.0524273
0.0525513
0.0559589
0.0660511
0.0922474
0.242397
0.126617
0.0971372
0.0823003
0.0735714
0.0683863
0.0654825
0.0640755
0.0635371
0.0632161
0.0624764
0.0608963
0.0584444
0.0555499
0.0528936
0.0512333
0.0514043
0.0547203
0.064415
0.0893684
0.240644
0.11853
0.093752
0.0806223
0.0725664
0.0676304
0.064765
0.063273
0.0625678
0.062056
0.0611821
0.0595762
0.0572021
0.0544266
0.051895
0.0503282
0.0505193
0.0537534
0.0630484
0.0868419
0.238963
0.111438
0.0909892
0.0793105
0.071807
0.067071
0.0642456
0.0627036
0.061889
0.0612505
0.0602862
0.058661
0.056336
0.0536379
0.0511861
0.0496767
0.0498737
0.0530409
0.0619555
0.0846393
0.237175
0.105255
0.0889399
0.0783975
0.0712957
0.066701
0.063907
0.0623382
0.0614577
0.0607419
0.0597216
0.0580836
0.0557878
0.0531363
0.0507319
0.049255
0.0494524
0.0525731
0.0611693
0.0828145
0.234131
0.100355
0.087781
0.0779242
0.0710378
0.0665159
0.0637392
0.062159
0.0612481
0.0604957
0.0594485
0.0578046
0.0555229
0.0528933
0.0505113
0.0490484
0.0492446
0.0523427
0.0607466
0.0815169
0.220508
1.02875
1.01953
0.948686
0.943659
1.53919
1.54167
0.654851
0.322047
0.285224
0.279471
0.289201
0.303397
0.390579
1.00616
1.48122
1.04157
0.588307
0.331974
0.353271
0.301489
0.333613
0.204834
0.169298
0.157094
0.154492
0.161787
0.202375
0.391189
1.46746
0.237774
0.197469
0.169146
0.1453
0.17635
0.25892
0.301501
0.176354
0.139255
0.125157
0.120311
0.123049
0.142352
0.208995
0.519529
1.5472
0.751457
0.167316
0.121004
0.108838
0.106099
0.115994
0.156263
0.261163
0.276867
0.159722
0.123009
0.108248
0.10236
0.102705
0.112609
0.140515
0.214571
0.292503
0.335638
0.281741
0.164342
0.118428
0.0949221
0.0879176
0.0890414
0.101086
0.140366
0.254533
0.25402
0.148022
0.1129
0.0981004
0.0917021
0.0906902
0.0959241
0.110013
0.132994
0.148848
0.150352
0.13453
0.115373
0.093723
0.0807369
0.0765815
0.0792314
0.0917406
0.129823
0.248194
0.231223
0.138593
0.105868
0.091431
0.0848251
0.082997
0.0856783
0.0934085
0.104674
0.111924
0.111438
0.102989
0.0920162
0.0797902
0.0719161
0.0694678
0.072765
0.0851299
0.12169
0.243873
0.209579
0.130421
0.100527
0.086721
0.080101
0.0777677
0.0789344
0.0833251
0.0893865
0.0929747
0.0919071
0.0863543
0.0790419
0.0711591
0.0659497
0.0645378
0.0681011
0.0801271
0.114753
0.240689
0.190205
0.123149
0.0962062
0.0831954
0.0766906
0.0740459
0.0742663
0.076749
0.0801466
0.0819131
0.0806283
0.0764596
0.0711212
0.0654267
0.0616477
0.060882
0.0645296
0.0761671
0.10887
0.242819
0.173393
0.116642
0.0925645
0.0804339
0.0741314
0.0713072
0.0709171
0.072243
0.0741422
0.0749001
0.0735067
0.0700342
0.06573
0.061368
0.058413
0.0580505
0.0616904
0.0729366
0.10371
0.240916
0.158957
0.11083
0.0894246
0.0781995
0.0721536
0.0692417
0.0684481
0.0690216
0.0699979
0.0701384
0.0686776
0.0656222
0.0619037
0.0583116
0.0559156
0.0558016
0.0593852
0.0702489
0.0992664
0.238834
0.146564
0.105664
0.0866933
0.0763563
0.0705956
0.0676579
0.066582
0.0666417
0.0670094
0.0667417
0.0652328
0.0624691
0.059133
0.0560013
0.0539601
0.0539969
0.0574986
0.0679812
0.0954441
0.2369
0.135878
0.101106
0.084324
0.0748272
0.0693603
0.0664302
0.0651561
0.064862
0.0648202
0.0642739
0.062726
0.0601525
0.057081
0.0542358
0.0524261
0.0525516
0.0559595
0.0660536
0.0921382
0.235117
0.126611
0.0971339
0.0822993
0.0735709
0.0683859
0.0654821
0.0640751
0.0635366
0.0632153
0.0624754
0.0608954
0.0584435
0.0555494
0.0528938
0.0512324
0.0514045
0.054721
0.0644178
0.0892562
0.233475
0.118526
0.0937491
0.0806217
0.0725662
0.0676303
0.0647647
0.0632727
0.0625675
0.0620555
0.0611814
0.0595756
0.0572016
0.0544263
0.0518951
0.0503275
0.0505193
0.0537541
0.063051
0.0867258
0.231916
0.111435
0.0909868
0.07931
0.0718069
0.0670711
0.0642454
0.0627035
0.0618888
0.0612502
0.0602858
0.0586607
0.0563357
0.0536378
0.0511862
0.0496762
0.0498738
0.0530415
0.0619575
0.0845159
0.230255
0.105252
0.0889379
0.0783971
0.0712957
0.0667011
0.063907
0.0623382
0.0614577
0.0607418
0.0597214
0.0580836
0.0557876
0.0531363
0.050732
0.0492547
0.0494525
0.0525737
0.0611707
0.0826814
0.227314
0.100354
0.0877793
0.077924
0.0710378
0.0665159
0.0637391
0.062159
0.0612481
0.0604957
0.0594486
0.0578047
0.0555229
0.0528933
0.0505114
0.0490483
0.0492447
0.0523432
0.0607465
0.0813909
0.216573
1.02914
1.01843
0.947953
0.941517
1.53847
1.53906
0.65453
0.321054
0.28429
0.278361
0.288354
0.302081
0.385577
1.01063
1.48096
1.04155
0.588309
0.331982
0.353277
0.301729
0.333397
0.204688
0.169155
0.156965
0.154345
0.161489
0.200807
0.385195
1.4556
0.237738
0.197464
0.169135
0.145301
0.176355
0.263681
0.301431
0.176296
0.139195
0.125099
0.120246
0.122949
0.141962
0.207827
0.517339
1.54225
0.7503
0.1664
0.120977
0.108835
0.106098
0.115993
0.156233
0.268807
0.276857
0.159695
0.122981
0.10822
0.102329
0.102668
0.112517
0.140372
0.214119
0.291555
0.334199
0.280726
0.163627
0.118066
0.0949067
0.0879139
0.08904
0.101088
0.140371
0.261665
0.254016
0.148008
0.112887
0.098086
0.0916865
0.0906729
0.0958947
0.10996
0.13289
0.148644
0.150096
0.134255
0.115115
0.0936293
0.0807313
0.0765794
0.0792307
0.0917422
0.129791
0.254428
0.231216
0.138583
0.105861
0.0914234
0.0848168
0.0829871
0.0856646
0.0933841
0.104627
0.11184
0.111344
0.102907
0.0919496
0.0797733
0.071914
0.0694673
0.0727649
0.0851311
0.121547
0.240162
0.209569
0.130414
0.100523
0.0867167
0.0800963
0.0777616
0.0789265
0.0833127
0.0893637
0.0929383
0.091871
0.0863338
0.0790267
0.071154
0.0659455
0.0645378
0.0681018
0.0801298
0.114617
0.236761
0.190195
0.123143
0.0962034
0.0831927
0.0766878
0.0740421
0.0742614
0.0767422
0.0801355
0.0818969
0.0806136
0.0764549
0.0711164
0.0654227
0.0616432
0.0608821
0.0645305
0.0761715
0.108738
0.237472
0.173385
0.116637
0.0925624
0.080432
0.0741296
0.0713048
0.0709139
0.0722392
0.0741366
0.0748925
0.0735001
0.0700332
0.0657273
0.0613661
0.0584096
0.0580507
0.0616913
0.0729411
0.103582
0.235686
0.15895
0.110825
0.0894229
0.0781981
0.0721523
0.0692401
0.0684459
0.0690192
0.0699948
0.0701344
0.0686741
0.0656214
0.0619008
0.0583108
0.0559132
0.0558019
0.0593862
0.0702528
0.0991353
0.233715
0.146558
0.10566
0.0866918
0.0763552
0.0705946
0.0676568
0.0665806
0.06664
0.0670074
0.0667393
0.0652307
0.062468
0.059131
0.056001
0.0539584
0.0539973
0.0574996
0.0679848
0.0953097
0.231878
0.135873
0.101102
0.0843227
0.0748263
0.0693596
0.0664295
0.0651552
0.0648609
0.0648189
0.0642723
0.0627245
0.0601514
0.0570798
0.0542357
0.0524249
0.0525521
0.0559606
0.0660572
0.0920017
0.230182
0.126607
0.0971306
0.0822983
0.0735703
0.0683856
0.0654816
0.0640746
0.0635359
0.0632144
0.0624744
0.0608944
0.0584427
0.0555488
0.0528938
0.0512316
0.0514049
0.0547222
0.0644212
0.0891183
0.228615
0.118523
0.0937463
0.0806209
0.0725659
0.0676302
0.0647645
0.0632725
0.0625671
0.0620549
0.0611808
0.059575
0.0572011
0.054426
0.0518951
0.0503269
0.0505196
0.0537553
0.0630541
0.0865875
0.227122
0.111433
0.0909844
0.0793094
0.0718068
0.067071
0.0642453
0.0627033
0.0618886
0.0612499
0.0602855
0.0586603
0.0563354
0.0536376
0.0511862
0.0496758
0.049874
0.0530426
0.0619597
0.0843779
0.225524
0.105251
0.088936
0.0783968
0.0712957
0.0667011
0.0639069
0.0623381
0.0614576
0.0607416
0.0597213
0.0580834
0.0557875
0.0531362
0.0507321
0.0492545
0.0494528
0.0525747
0.0611716
0.0825544
0.222938
0.100353
0.0877777
0.0779238
0.0710378
0.0665159
0.0637391
0.062159
0.0612481
0.0604957
0.0594485
0.0578047
0.0555229
0.0528934
0.0505115
0.0490482
0.049245
0.052344
0.0607471
0.0813716
0.223332
1.02985
1.01791
0.947729
0.940236
1.53594
1.53529
0.654305
0.32019
0.283481
0.277401
0.287675
0.301015
0.381609
1.01514
1.48071
1.04152
0.588311
0.331978
0.353224
0.301718
0.333211
0.204534
0.169005
0.156827
0.154192
0.161186
0.199334
0.380746
1.44612
0.237696
0.197456
0.169126
0.145298
0.176338
0.26909
0.301361
0.176236
0.139132
0.125039
0.120178
0.122841
0.141557
0.206685
0.515972
1.53724
0.749051
0.165617
0.120947
0.108831
0.106096
0.115988
0.156275
0.275464
0.276844
0.159667
0.122952
0.10819
0.102297
0.102626
0.112411
0.140214
0.21373
0.290846
0.333128
0.279998
0.163012
0.117728
0.0948878
0.08791
0.0890375
0.101087
0.140456
0.267885
0.254012
0.147993
0.112873
0.0980709
0.0916701
0.0906536
0.0958598
0.109902
0.132782
0.14845
0.149858
0.134
0.114867
0.0935283
0.0807233
0.076577
0.0792292
0.0917425
0.129812
0.259732
0.231209
0.138574
0.105853
0.0914153