/*--------------------------------*- C++ -*----------------------------------*\
  =========                 |
  \\      /  F ield         | OpenFOAM: The Open Source CFD Toolbox
   \\    /   O peration     | Website:  https://openfoam.org
    \\  /    A nd           | Version:  10
     \\/     M anipulation  |
\*---------------------------------------------------------------------------*/
FoamFile
{
    format      ascii;
    class       volScalarField;
    location    "2000";
    object      p;
}
// * * * * * * * * * * * * * * * * * * * * * * * * * * * * * * * * * * * * * //

dimensions      [0 2 -2 0 0 0 0];

internalField   nonuniform List<scalar> 
52338
(
0.00104612
0.134065
0.142237
0.0553291
0.0461948
0.168012
0.0411505
0.0538883
0.058767
0.0484386
0.036976
0.0628721
-0.0266782
-0.0871787
-0.000668466
-0.000728369
-0.00127955
-0.00175647
-0.00181767
-0.000283036
0.0230498
0.0375338
0.0403469
0.0392708
0.0438235
0.0554158
0.0665395
-0.00883366
-0.109371
-0.00193948
-0.000922774
-0.00152717
-0.0018194
-0.00184702
0.000188053
0.0157871
0.0271917
0.0309535
0.0314689
0.0347583
0.0419213
0.0501519
0.0152078
0.0211884
0.0795497
-0.0139715
-0.0345381
-0.00184339
-0.001078
-0.00172481
-0.00176497
-0.00145969
-0.00109148
0.0092406
0.018522
0.0226105
0.024052
0.0265517
0.0310626
0.0381936
0.0481826
0.0393443
0.0376367
0.0165904
0.0024708
-0.0304214
-0.00100025
-0.000810631
-0.00121712
-0.00176412
-0.00175257
-0.00197027
-0.00286308
0.00490481
0.0123217
0.0163281
0.0182333
0.0206694
0.0236872
0.0292791
0.0362711
0.0339891
0.0313803
0.0223481
0.00200259
-0.00344995
-0.00178091
-0.000748337
-0.00125303
-0.00179129
-0.00177344
-0.00242925
-0.0039934
0.00235526
0.00808229
0.0119421
0.0139146
0.0160842
0.0191961
0.0236075
0.0274794
0.0270366
0.0243511
0.0172305
0.00410982
-0.00280381
-0.00233199
-0.00116268
-0.00129761
-0.00183855
-0.00183797
-0.00288194
-0.0051035
0.000933993
0.005132
0.00863171
0.0105754
0.0127455
0.0160548
0.0198955
0.0217878
0.0209661
0.0182166
0.0127402
0.00404499
-0.0019275
-0.00234861
-0.00139936
-0.00134146
-0.0018987
-0.0018987
-0.00320775
-0.00561672
0.000218069
0.0032544
0.00625571
0.00810227
0.0101641
0.0133009
0.0165315
0.0175617
0.0162995
0.013645
0.00953575
0.00300631
-0.00129626
-0.00178904
-0.00132918
-0.00136805
-0.00196009
-0.00194947
-0.00353035
-0.00600514
-8.30941e-05
0.00207915
0.00457572
0.00624435
0.00807565
0.0107587
0.0134994
0.0140531
0.0126587
0.0104271
0.00705337
0.00202938
-0.000921674
-0.00136499
-0.00122106
-0.00138637
-0.00201631
-0.00201207
-0.00382631
-0.00634748
-0.000145334
0.00135041
0.00335968
0.00481218
0.00635215
0.00828156
0.0105127
0.0108337
0.00955431
0.00788591
0.00521295
0.0016877
-0.000418284
-0.0010428
-0.00111854
-0.00139349
-0.00206462
-0.00207981
-0.00403988
-0.00657698
-9.28068e-05
0.000925791
0.0024296
0.00366149
0.00492038
0.00627756
0.00750512
0.00790177
0.00704175
0.00589388
0.00384745
0.00154425
1.9417e-05
-0.000819137
-0.00100971
-0.00138482
-0.00210805
-0.00215466
-0.00419661
-0.00677044
-8.95706e-06
0.000687066
0.00167805
0.00266655
0.00363997
0.00482669
0.00543993
0.00556846
0.00521183
0.00437141
0.00277137
0.00108518
4.23253e-06
-0.00068554
-0.000920459
-0.00138102
-0.00214713
-0.00222976
-0.00429566
-0.00692842
8.61326e-05
0.000564315
0.00128158
0.00190309
0.00277515
0.00368483
0.00415277
0.00411405
0.00388029
0.00319026
0.00192193
0.000639538
-0.000118793
-0.000608478
-0.000851682
-0.00141194
-0.00218001
-0.00230193
-0.00434865
-0.00706165
0.000183011
0.000506243
0.00100943
0.00145221
0.00220484
0.00291229
0.00320385
0.00307934
0.00284255
0.00222726
0.00125764
0.000306356
-0.000225749
-0.000578011
-0.000876232
-0.00139246
-0.00220968
-0.0023741
-0.00436295
-0.00717774
0.000265358
0.000481248
0.000815865
0.00113463
0.00176227
0.0022675
0.00241377
0.002259
0.00201799
0.00146287
0.000778756
8.46027e-05
-0.000301941
-0.00058355
-0.000903901
-0.00140198
-0.00223376
-0.00244603
-0.00435094
-0.00723651
0.000323422
0.000465488
0.00068992
0.000900008
0.00137434
0.00172763
0.00179588
0.00164028
0.00140385
0.00100432
0.000466046
-3.12848e-05
-0.000348755
-0.000615577
-0.00094822
-0.00142448
-0.00223805
-0.00253576
-0.00429639
-0.00712032
0.000344972
0.000451821
0.000628801
0.000769451
0.00111373
0.00136863
0.00142636
0.00128363
0.00109926
0.000753845
0.000329872
-6.15077e-05
-0.000364139
-0.00065433
-0.000999387
-0.00142988
-0.00224025
-0.0026691
-0.004358
-0.00704838
0.0119116
0.013429
0.00853399
0.0137889
0.00696333
0.0183506
0.00286991
-0.000344058
-0.00179571
0.005162
0.00881521
0.00696587
-0.00973603
-0.0180663
0.00144563
-0.000601911
-0.00129982
-0.00150849
-0.00136258
-0.00115693
0.00294823
8.82622e-05
-0.000648461
0.000771456
0.0023873
0.0028372
-9.03821e-05
-0.0211672
-0.00352237
0.0011429
-0.000689383
-0.00134186
-0.00143875
-0.0011213
0.00103829
0.00315869
0.00132239
0.0006476
0.00147391
0.00296524
0.00530817
0.00534452
0.0117448
0.0155939
0.00753476
0.0407774
1.42652e-05
0.000145469
-0.000984544
-0.00143895
-0.00136726
-0.000168419
0.0013826
0.00248091
0.00196693
0.00154234
0.00204421
0.00340939
0.0058073
0.00631706
0.00549189
0.00598814
0.000878691
0.00382189
0.0291632
0.00930415
0.00237374
-0.000329417
-0.00112027
-0.00141791
-0.00131033
0.000181115
0.000555167
0.00195756
0.00206909
0.00184146
0.00215136
0.00313166
0.00532772
0.00595274
0.00491857
0.000576371
-0.00218977
0.00102486
0.013813
0.00731028
0.00209789
-0.000868388
-0.0012259
-0.0014375
-0.00125114
0.000548352
0.000273339
0.00139038
0.00185393
0.00168743
0.0019494
0.00274062
0.00420319
0.00473131
0.00389739
0.000720901
-0.00102385
0.00111137
0.00830046
0.00551371
0.00180743
-0.000920735
-0.00127356
-0.0014816
-0.00122426
0.000698067
-0.000176626
0.000904951
0.00158587
0.00149169
0.00170349
0.00222188
0.00300035
0.00324796
0.00265565
0.000850546
-9.24913e-05
0.00118608
0.00481179
0.00355387
0.00136959
-0.000391779
-0.00128016
-0.0015241
-0.00120706
0.000759779
-0.00036612
0.0005363
0.00125714
0.00126144
0.001405
0.00172003
0.00222292
0.00215825
0.00171729
0.000768471
0.000324294
0.00102537
0.00308191
0.00186601
0.000673545
-0.000589842
-0.00132026
-0.00156641
-0.00120409
0.000717738
-0.000573814
0.000277764
0.000935187
0.00100991
0.00110571
0.00130452
0.00161991
0.00147425
0.00109358
0.000574652
0.000313829
0.000839481
0.00236207
0.000909491
-0.00036731
-0.000937545
-0.00138213
-0.00161995
-0.00123049
0.000641756
-0.000759251
0.000116607
0.000675833
0.000785526
0.000854531
0.000995948
0.00113775
0.00115611
0.000781998
0.000469171
0.000252003
0.000592945
0.0012685
0.000546093
-0.000859283
-0.00124117
-0.00147877
-0.00168297
-0.00127363
0.000579246
-0.000863116
2.56161e-05
0.000476839
0.000599515
0.00067619
0.000790448
0.00105103
0.000744063
0.000774663
0.000419289
0.000189421
0.000345211
0.000457312
-0.000190045
-0.00122465
-0.00153637
-0.00161913
-0.00175095
-0.00132788
0.000519925
-0.000943937
-1.02285e-05
0.000317998
0.00038087
0.000587064
0.000643339
0.000976413
0.000712967
0.000596233
0.000335213
0.000120499
0.000155407
5.94375e-05
-0.000495695
-0.00148717
-0.00180981
-0.00178332
-0.00181432
-0.00138846
0.000471906
-0.00100136
-1.34417e-05
0.000201588
0.000389367
0.00047097
0.000659711
0.000595895
0.000555571
0.000433509
0.000256609
7.04019e-05
2.97143e-05
-0.000151143
-0.000626891
-0.00160394
-0.00184009
-0.00197119
-0.00185936
-0.0014487
0.000442023
-0.00102914
-9.89074e-06
0.000116247
0.000312079
0.0003614
0.000520234
0.000497032
0.000422588
0.000318736
0.000213949
3.32795e-05
-4.2594e-05
-0.000279805
-0.000693486
-0.00161248
-0.00197042
-0.00181873
-0.00186333
-0.00149926
0.000415236
-0.00103342
-1.25793e-05
5.86073e-05
0.000245968
0.00028792
0.0004122
0.000399917
0.00035622
0.000257541
0.000189987
3.26364e-06
-7.79688e-05
-0.000355788
-0.000716778
-0.00153584
-0.00189492
-0.00174945
-0.0018504
-0.0015322
0.000378467
-0.00101707
-2.90944e-05
2.18474e-05
0.000204118
0.000242856
0.000346037
0.000337776
0.000341795
0.000239012
0.000180766
5.95335e-05
-0.000169092
-0.000396997
-0.000705096
-0.00140723
-0.00173051
-0.00165983
-0.0018271
-0.00160023
0.00027572
-0.000911773
-4.55609e-05
3.62018e-06
0.000187477
0.000221891
0.000331469
0.000337661
0.000354385
0.000243534
0.000226322
2.47516e-05
-0.000194324
-0.000414728
-0.000685015
-0.00130441
-0.00158482
-0.00158139
-0.00180135
-0.00172417
2.13131e-05
-0.000784001
-0.00774844
-0.00549287
-0.00547451
-0.00261617
-0.00601827
-0.0106543
-0.00667172
-0.00530871
-0.00454491
-0.00276766
-0.00395513
-0.00638041
-0.0154946
-0.0284488
-0.00163376
-0.00119528
-0.00132636
-0.00142336
-0.00131008
-0.00152051
-0.00569643
-0.0063837
-0.00654004
-0.00620534
-0.00771364
-0.0117886
-0.0129427
-0.0164696
-0.00656502
-0.0018076
-0.00130491
-0.00131351
-0.00143886
-0.00115703
9.73208e-05
-0.00497394
-0.00578203
-0.00605789
-0.00591417
-0.00706261
-0.010494
-0.0114769
-0.0142921
-0.00737302
-0.00674072
-0.0170354
-0.00581794
-0.00135641
-0.00129651
-0.00125035
-0.00141251
-0.000608956
0.00185041
-0.00363497
-0.00469706
-0.00507913
-0.00512651
-0.00594308
-0.00858652
-0.00988263
-0.00975947
-0.0057483
-0.00399676
-0.00597514
-0.0148138
-0.0117044
-0.00384368
-0.00119917
-0.0012037
-0.00117421
-0.00137924
0.00016638
0.00319787
-0.00235516
-0.00363246
-0.00410164
-0.00426624
-0.00496425
-0.00679798
-0.00802174
-0.00787795
-0.00604365
-0.00635949
-0.00813089
-0.0108723
-0.00774143
-0.00323377
-0.00119401
-0.00112846
-0.00114587
-0.00133926
0.00073495
0.00375701
-0.00155543
-0.00275856
-0.00329316
-0.00348136
-0.00398536
-0.00541632
-0.00623418
-0.0058897
-0.0053763
-0.00573175
-0.00687434
-0.00772178
-0.00547617
-0.00265054
-0.00148342
-0.0010933
-0.00114031
-0.00132755
0.00103583
0.00375175
-0.00108984
-0.00204204
-0.00257208
-0.00277211
-0.00318662
-0.00424015
-0.00482431
-0.00450456
-0.00448286
-0.00475509
-0.00539691
-0.00524178
-0.00395604
-0.00248026
-0.00142024
-0.00107713
-0.00115054
-0.00132997
0.00125022
0.00375468
-0.000817922
-0.00153642
-0.00200619
-0.00220982
-0.00255334
-0.00335866
-0.00378328
-0.00354351
-0.00364518
-0.0038059
-0.004212
-0.00369682
-0.00304878
-0.00195103
-0.00137337
-0.00108012
-0.00116572
-0.00133629
0.00139183
0.00370837
-0.000652903
-0.0011857
-0.0015844
-0.00177684
-0.00205558
-0.00268323
-0.00300447
-0.00282949
-0.00293671
-0.00305747
-0.003255
-0.00259285
-0.00237813
-0.0017377
-0.00123297
-0.0010733
-0.00117897
-0.00134356
0.00148079
0.00368893
-0.00054934
-0.000940964
-0.00126444
-0.00144541
-0.00166151
-0.00212311
-0.00229591
-0.00225328
-0.00232684
-0.00242777
-0.00254101
-0.00237663
-0.00148852
-0.00140872
-0.00106199
-0.00105463
-0.00118697
-0.00135922
0.00153988
0.00371274
-0.000488873
-0.000777923
-0.00101746
-0.00119413
-0.0013547
-0.00162466
-0.00177896
-0.00178684
-0.00183698
-0.00194007
-0.00199155
-0.00177999
-0.00129436
-0.00118802
-0.000912756
-0.00101677
-0.00118586
-0.00138798
0.0015636
0.00373495
-0.000454051
-0.000677833
-0.000856349
-0.00100226
-0.00114245
-0.00134354
-0.00141823
-0.00144102
-0.00149452
-0.00157951
-0.001597
-0.00138034
-0.00109259
-0.00103943
-0.000794661
-0.000984758
-0.00117924
-0.00142208
0.00156052
0.00376935
-0.000434207
-0.000620465
-0.000736333
-0.000863535
-0.000997852
-0.0011977
-0.00119068
-0.0011958
-0.0012485
-0.00130944
-0.00131812
-0.00114725
-0.00095635
-0.000928766
-0.000650601
-0.00108636
-0.00118517
-0.00146155
0.00152681
0.00381257
-0.000424729
-0.000588279
-0.000672479
-0.000766858
-0.000929855
-0.00101717
-0.00101166
-0.00101197
-0.00105742
-0.0011041
-0.00112112
-0.00100097
-0.000878566
-0.000871205
-0.000761273
-0.00100736
-0.00119796
-0.00149957
0.00146261
0.00386053
-0.000418313
-0.000568457
-0.000621046
-0.000688904
-0.000821599
-0.000856852
-0.000873265
-0.000877426
-0.000918701
-0.000964423
-0.000986619
-0.00090848
-0.000841697
-0.000860999
-0.000818796
-0.00103574
-0.0012225
-0.00151953
0.00136893
0.00387834
-0.000410199
-0.000551015
-0.000581678
-0.000628161
-0.00070286
-0.000760219
-0.000775196
-0.000784839
-0.000829865
-0.000878305
-0.000914701
-0.000856695
-0.000830231
-0.000892744
-0.000883654
-0.00108152
-0.00124619
-0.00155161
0.00121355
0.0039091
-0.000398672
-0.000538604
-0.000558369
-0.000595376
-0.000643698
-0.00070101
-0.000715864
-0.000730296
-0.000784944
-0.00084661
-0.000871408
-0.000840904
-0.000836047
-0.000944188
-0.000954522
-0.00113283
-0.00125048
-0.00164302
0.000902395
0.00392851
-0.0108553
-0.0104793
-0.010126
-0.0085166
-0.0113533
-0.0149256
-0.00854996
-0.00875267
-0.00820885
-0.00717323
-0.00818646
-0.0113557
-0.0178901
-0.024716
-0.00257071
-0.00168367
-0.00151186
-0.00161577
-0.00156196
-0.00148044
-0.00638787
-0.00638774
-0.00617246
-0.00609289
-0.00722928
-0.0105861
-0.0135179
-0.0175134
-0.0050158
-0.00233706
-0.00176171
-0.00152269
-0.00177802
-0.00173533
-0.00107385
-0.00557702
-0.0052666
-0.00506814
-0.00508011
-0.00597861
-0.00868716
-0.0106211
-0.0136843
-0.0112602
-0.00898297
-0.00912489
-0.00355541
-0.00200741
-0.00171537
-0.00147609
-0.00184107
-0.00211835
0.000507651
-0.0045385
-0.00438258
-0.00430959
-0.00439035
-0.00507048
-0.00710192
-0.00842916
-0.00898629
-0.00805337
-0.00624775
-0.00675868
-0.00811738
-0.00572596
-0.00246862
-0.00188521
-0.0016427
-0.00142843
-0.00188878
-0.00190482
0.00193083
-0.00369891
-0.00368296
-0.00365963
-0.00377182
-0.00433291
-0.00575506
-0.00666335
-0.0069256
-0.00558401
-0.00504933
-0.00563583
-0.00686533
-0.0046305
-0.00248563
-0.00172073
-0.00154975
-0.00140523
-0.0019428
-0.00183925
0.0025
-0.00304207
-0.00310922
-0.00311298
-0.00321431
-0.00361693
-0.00463284
-0.00525159
-0.00529907
-0.00446888
-0.00412367
-0.00463219
-0.00554728
-0.00420835
-0.00233943
-0.00164576
-0.0014808
-0.00140595
-0.00200245
-0.00179932
0.00265769
-0.00247793
-0.00260728
-0.00263072
-0.00271609
-0.00300847
-0.00371007
-0.00415314
-0.00415477
-0.00366283
-0.00346866
-0.00386695
-0.00432614
-0.00358494
-0.00219791
-0.00153455
-0.00142826
-0.00141882
-0.00206225
-0.00169352
0.0028202
-0.00201988
-0.00220491
-0.00223186
-0.00230104
-0.00250723
-0.00300303
-0.00330269
-0.003281
-0.00302413
-0.00292008
-0.00325104
-0.00343493
-0.00298504
-0.00191153
-0.00145591
-0.0013938
-0.00143352
-0.00213032
-0.00164577
0.00291427
-0.00166706
-0.00188283
-0.00190579
-0.00195983
-0.00210314
-0.00245393
-0.00265941
-0.00263417
-0.0025091
-0.00246059
-0.0026999
-0.00274364
-0.00243942
-0.00171496
-0.00135758
-0.00136334
-0.00144558
-0.00217992
-0.00158427
0.0029841
-0.00140278
-0.00162564
-0.00164054
-0.0016838
-0.00178069
-0.00202541
-0.00216663
-0.00215554
-0.00209274
-0.0020786
-0.00224519
-0.0023095
-0.00191231
-0.00151513
-0.0012611
-0.00133663
-0.00145332
-0.00221989
-0.00155117
0.00303096
-0.00120575
-0.00142278
-0.00142681
-0.0014651
-0.00152903
-0.0016924
-0.00180046
-0.00179774
-0.00176591
-0.00177382
-0.00187659
-0.00187493
-0.00166037
-0.00136531
-0.00117486
-0.00130782
-0.00145971
-0.00225803
-0.00154902
0.00305802
-0.00106387
-0.00126385
-0.0012647
-0.00129385
-0.00134005
-0.00145718
-0.00152163
-0.00153036
-0.00152054
-0.00153353
-0.00160343
-0.00159526
-0.00143269
-0.00124137
-0.00110415
-0.00127151
-0.00146453
-0.00229736
-0.00157441
0.0030901
-0.000961711
-0.00114188
-0.00114456
-0.00116165
-0.00119642
-0.00128214
-0.00131984
-0.00133063
-0.00133355
-0.00134666
-0.00139715
-0.0013966
-0.00126843
-0.00114959
-0.00104826
-0.00127612
-0.00147459
-0.00233454
-0.00162757
0.00312342
-0.000889201
-0.00105067
-0.00105771
-0.00106298
-0.00109356
-0.00114148
-0.00117063
-0.00118349
-0.00119204
-0.00120555
-0.00124684
-0.00125281
-0.00115619
-0.00109119
-0.00105097
-0.00127469
-0.00149088
-0.00237514
-0.00171544
0.00315318
-0.000838806
-0.00098514
-0.000993716
-0.000993406
-0.00101232
-0.00104374
-0.00106825
-0.00108236
-0.00109406
-0.00110974
-0.00114424
-0.00115838
-0.001085
-0.00105835
-0.00105603
-0.00130296
-0.00151296
-0.00241839
-0.00185056
0.00312933
-0.000803326
-0.000942573
-0.000950729
-0.000950019
-0.000958519
-0.00098459
-0.00100452
-0.00101861
-0.00103308
-0.00105088
-0.00107769
-0.00109804
-0.00104355
-0.001047
-0.0010776
-0.00133167
-0.00154306
-0.00243101
-0.00204017
0.00294037
-0.000782142
-0.000919074
-0.000925677
-0.000925905
-0.000930754
-0.000949709
-0.000967933
-0.000981017
-0.0010006
-0.00101775
-0.00103474
-0.00106443
-0.00102667
-0.001055
-0.00111209
-0.00136827
-0.00157176
-0.00242964
-0.00236467
0.00259372
-0.00924537
-0.00900034
-0.00885866
-0.00838406
-0.0105956
-0.0119035
-0.00752102
-0.00736004
-0.00723213
-0.00701167
-0.00762354
-0.00892878
-0.0117198
-0.0141985
-0.00210388
-0.00160249
-0.00147244
-0.00153844
-0.00150822
0.000349586
-0.0054431
-0.00568783
-0.00574543
-0.00590813
-0.00625482
-0.00746797
-0.00865749
-0.0102077
-0.00332338
-0.00195152
-0.00162582
-0.00149092
-0.00170167
-0.00194162
-0.000987296
-0.0048949
-0.00482982
-0.00483473
-0.00497046
-0.00524483
-0.00625807
-0.00686657
-0.00933366
-0.00843533
-0.00734586
-0.00447271
-0.00208461
-0.00166555
-0.00153883
-0.00147297
-0.0018643
-0.00313948
-0.001504
-0.00418858
-0.00409202
-0.00412618
-0.00424554
-0.00446877
-0.00530936
-0.00579195
-0.00626698
-0.00637665
-0.00499465
-0.00441058
-0.0039938
-0.00221586
-0.00134492
-0.00159871
-0.0015313
-0.00151354
-0.00201597
-0.00377134
-0.00149196
-0.00362963
-0.00351222
-0.00352528
-0.0036357
-0.00383288
-0.00448546
-0.00483271
-0.00518231
-0.00459122
-0.00393125
-0.00326322
-0.0026323
-0.00164898
-0.00147974
-0.00152057
-0.00152244
-0.00154938
-0.0021651
-0.00423681
-0.00141452
-0.00316287
-0.00305616
-0.00304417
-0.0031408
-0.00330116
-0.00380448
-0.00405204
-0.00426717
-0.0038265
-0.00329918
-0.0027256
-0.00226541
-0.00175896
-0.00151023
-0.00146656
-0.00151864
-0.00158788
-0.00227541
-0.00443457
-0.00119512
-0.00274962
-0.00267723
-0.00265448
-0.00273697
-0.00286903
-0.00324025
-0.00343435
-0.00357278
-0.00323436
-0.00282882
-0.00241688
-0.00212786
-0.00176423
-0.00147828
-0.00140589
-0.00151415
-0.00163036
-0.00234731
-0.00435479
-0.000616207
-0.00239219
-0.00235869
-0.00233525
-0.00240493
-0.00250839
-0.00278361
-0.00292869
-0.0030043
-0.00274998
-0.00243711
-0.00216656
-0.0019737
-0.0016893
-0.00141818
-0.00137156
-0.00151156
-0.0016622
-0.00238875
-0.00395309
0.00065327
-0.00208682
-0.00208771
-0.00206859
-0.00212726
-0.00220607
-0.00240949
-0.00251452
-0.00255123
-0.00236215
-0.00211938
-0.00193267
-0.0018005
-0.00158613
-0.00138701
-0.00134761
-0.00151443
-0.00168896
-0.00243017
-0.0037916
0.00115937
-0.00183113
-0.00185877
-0.00184512
-0.00189399
-0.00195452
-0.00210493
-0.00217674
-0.00219271
-0.002054
-0.00186567
-0.00173058
-0.00164916
-0.00145965
-0.00135045
-0.00132985
-0.00152467
-0.00172091
-0.00247762
-0.00373999
0.00137087
-0.00162035
-0.00166709
-0.00165696
-0.00169919
-0.00174567
-0.00185171
-0.00190836
-0.00190778
-0.00180569
-0.00166202
-0.00155673
-0.00148052
-0.00137689
-0.00131419
-0.00131385
-0.00153627
-0.00175417
-0.00252899
-0.00374222
0.00146366
-0.0014477
-0.0015098
-0.00150394
-0.00153762
-0.00157337
-0.00164705
-0.00168934
-0.00168395
-0.00160671
-0.00149683
-0.00141387
-0.00135669
-0.00128722
-0.00127709
-0.00129694
-0.00154315
-0.00178475
-0.00257907
-0.00377751
0.00149975
-0.00131136
-0.00138371
-0.00138195
-0.00140805
-0.00143244
-0.00148813
-0.00151668
-0.00150934
-0.00144966
-0.00136429
-0.0012968
-0.00125408
-0.00120854
-0.00123903
-0.00127713
-0.00155347
-0.00181642
-0.00263103
-0.00384208
0.00148525
-0.00120787
-0.00128755
-0.00128758
-0.00130861
-0.00132619
-0.00136663
-0.00138583
-0.00137755
-0.00132984
-0.00126252
-0.00120492
-0.00117315
-0.00114563
-0.00120288
-0.00127228
-0.00156392
-0.00184768
-0.002692
-0.00394325
0.00141202
-0.00113742
-0.00121823
-0.00121876
-0.00123709
-0.00125166
-0.00128191
-0.00129498
-0.00128512
-0.00124486
-0.00118942
-0.001136
-0.00111305
-0.00109784
-0.00117238
-0.00126541
-0.00157359
-0.00188024
-0.00275902
-0.00408233
0.00120133
-0.00109514
-0.00117516
-0.00117452
-0.00119267
-0.00120716
-0.00123205
-0.00123903
-0.00122801
-0.00119152
-0.00114147
-0.00109292
-0.00107375
-0.00106383
-0.00115042
-0.00125968
-0.00157693
-0.0019246
-0.00280597
-0.00430989
0.000678643
-0.00107552
-0.00115388
-0.00115202
-0.00117037
-0.0011861
-0.00120779
-0.00121042
-0.00120029
-0.00116558
-0.00111845
-0.00107233
-0.00105416
-0.00104462
-0.00114191
-0.00125783
-0.00158434
-0.00196806
-0.0028409
-0.0048838
-0.000620209
-0.00646895
-0.00655784
-0.00672949
-0.00683415
-0.00845233
-0.00855466
-0.00546503
-0.00550343
-0.00569842
-0.00579125
-0.00616308
-0.00653785
-0.0070834
-0.00842566
-0.00157695
-0.00119967
-0.00108349
-0.000956923
-0.000833528
0.0019543
-0.00422247
-0.00463061
-0.0048688
-0.00510603
-0.00528338
-0.00571894
-0.00574667
-0.00649317
-0.00266885
-0.00150947
-0.00121322
-0.00109129
-0.000918035
-0.00115416
-1.40137e-05
-0.0040909
-0.0041697
-0.00437069
-0.0045801
-0.00473758
-0.00517235
-0.00503317
-0.00652965
-0.00599109
-0.00558
-0.00265768
-0.00152426
-0.00121222
-0.00107232
-0.00105357
-0.00105766
-0.00209809
-0.00187081
-0.00362806
-0.00372102
-0.00391362
-0.00409749
-0.0042125
-0.00463604
-0.00462936
-0.00479785
-0.00480486
-0.00374713
-0.00297754
-0.00227981
-0.00161515
-0.00111039
-0.00117629
-0.00108472
-0.0011656
-0.00121473
-0.00292404
-0.00276021
-0.00324431
-0.00331499
-0.00347166
-0.00363402
-0.00373146
-0.0040918
-0.00412843
-0.00423575
-0.0037356
-0.0030982
-0.00242863
-0.00185489
-0.00132964
-0.00119985
-0.00113702
-0.00111247
-0.00127256
-0.00140178
-0.00354429
-0.003095
-0.00289941
-0.00295496
-0.00308065
-0.00322158
-0.00330502
-0.00360076
-0.00363012
-0.00369325
-0.00330896
-0.0028194
-0.00225152
-0.00175578
-0.00134484
-0.00117898
-0.00111471
-0.00114996
-0.00137767
-0.00159528
-0.00401092
-0.00308032
-0.00258181
-0.00263658
-0.0027378
-0.0028611
-0.00293276
-0.00316764
-0.00319322
-0.00322531
-0.00291764
-0.00252947
-0.00205978
-0.00163198
-0.00127982
-0.00113703
-0.00109816
-0.00118393
-0.00146461
-0.00178202
-0.00443466
-0.00302644
-0.00230517
-0.00235965
-0.00244064
-0.00254651
-0.00261069
-0.00279357
-0.00281179
-0.00281445
-0.00256435
-0.00224305
-0.00185746
-0.00150513
-0.00120639
-0.00109273
-0.00108398
-0.00121501
-0.0015374
-0.00194957
-0.00472784
-0.00272279
-0.00206752
-0.00212016
-0.0021836
-0.00227478
-0.00233258
-0.00247346
-0.00248303
-0.00246669
-0.00226032
-0.00199022
-0.00167253
-0.00138744
-0.00114651
-0.00106306
-0.00107043
-0.00124386
-0.00160664
-0.00211133
-0.0050947
-0.00274518
-0.00186214
-0.00191513
-0.00196475
-0.00204285
-0.00209527
-0.00220251
-0.00220533
-0.00217516
-0.0020046
-0.00177763
-0.00151639
-0.00128844
-0.00108679
-0.00104059
-0.00106139
-0.00127012
-0.00166851
-0.00224262
-0.00532394
-0.00267513
-0.00168968
-0.00174226
-0.00178182
-0.00184727
-0.00189348
-0.00197223
-0.00197081
-0.00193255
-0.00179067
-0.00160067
-0.00138478
-0.00119483
-0.00103631
-0.00101769
-0.00105345
-0.0012943
-0.00172141
-0.00234009
-0.00544766
-0.00264009
-0.00154541
-0.00159783
-0.00162912
-0.00168471
-0.00172359
-0.00178131
-0.00177505
-0.00173381
-0.0016139
-0.00145343
-0.00127443
-0.00111861
-0.000992984
-0.000996517
-0.00104529
-0.00131441
-0.00176634
-0.00240949
-0.00551226
-0.00265583
-0.00142806
-0.00147806
-0.00150415
-0.00155176
-0.00158478
-0.00162783
-0.00161606
-0.00157431
-0.00147053
-0.00133327
-0.0011835
-0.00105626
-0.000957368
-0.000976908
-0.00103728
-0.00132959
-0.00180119
-0.00245652
-0.00554609
-0.00272356
-0.00133542
-0.00138542
-0.00140687
-0.00144725
-0.00147485
-0.00150568
-0.00149165
-0.00144972
-0.0013579
-0.00123922
-0.0011116
-0.00100552
-0.000926566
-0.000959272
-0.00103387
-0.00133963
-0.00182593
-0.0024882
-0.00555137
-0.00282966
-0.00126874
-0.00131887
-0.001335
-0.00136813
-0.00139163
-0.0014133
-0.00139758
-0.00135709
-0.00127466
-0.00116971
-0.00105842
-0.000967851
-0.000902268
-0.00094443
-0.00103022
-0.00134456
-0.00184888
-0.00250631
-0.00547323
-0.00292128
-0.00122609
-0.00127386
-0.00128695
-0.00131525
-0.00133415
-0.00135033
-0.0013335
-0.00129339
-0.0012183
-0.00112459
-0.00102387
-0.000943626
-0.000885988
-0.000932999
-0.00102577
-0.00134412
-0.00187912
-0.00250869
-0.00529698
-0.00298262
-0.00120115
-0.00125078
-0.00126067
-0.00128788
-0.00130366
-0.00131834
-0.00129976
-0.00125852
-0.00118718
-0.00110111
-0.00100756
-0.000933562
-0.000876962
-0.00092429
-0.00101745
-0.00133672
-0.00192437
-0.00252449
-0.00536924
-0.00334581
-0.00407405
-0.0044319
-0.00483255
-0.00515025
-0.00654784
-0.00635379
-0.00357254
-0.00370446
-0.00406642
-0.00431221
-0.00463198
-0.00480626
-0.00499534
-0.00662036
-0.00102576
-0.000650573
-0.000413225
2.90183e-05
0.000407637
0.00263496
-0.00287222
-0.00326816
-0.00355784
-0.00383159
-0.00401755
-0.00434121
-0.00416971
-0.00484826
-0.00204528
-0.000983752
-0.000639451
-0.000386713
0.000307311
0.000445572
0.001069
-0.00289733
-0.003079
-0.0033286
-0.003556
-0.00372338
-0.00408458
-0.00387628
-0.00491748
-0.00453048
-0.00427134
-0.00180337
-0.000914646
-0.000677477
-0.000425796
-0.000250483
0.000252536
0.000516894
-0.000215791
-0.00267957
-0.00284866
-0.00307198
-0.00327315
-0.00342228
-0.00374507
-0.00366578
-0.00366959
-0.00361829
-0.00271119
-0.00203091
-0.00138434
-0.000977171
-0.000665284
-0.000654178
-0.000427664
-0.000368303
0.00017034
0.000181152
-0.00088697
-0.00252005
-0.00263853
-0.00282029
-0.00299611
-0.00311863
-0.00338452
-0.00332098
-0.00331991
-0.00280471
-0.00220626
-0.00164939
-0.00121981
-0.000896139
-0.000744773
-0.0006252
-0.000446997
-0.000485467
3.51773e-05
-0.000286124
-0.00138753
-0.00233846
-0.00243471
-0.00258377
-0.00273297
-0.00282126
-0.00303543
-0.00297228
-0.00294856
-0.00254112
-0.00208408
-0.0016256
-0.00124482
-0.000938534
-0.00074462
-0.000609499
-0.000479661
-0.000603243
-0.000147075
-0.000917316
-0.00185857
-0.00215761
-0.00223595
-0.00235655
-0.00248316
-0.00254899
-0.00271571
-0.00265992
-0.00261612
-0.00228443
-0.00191484
-0.00153757
-0.00119254
-0.000901602
-0.000727883
-0.000605871
-0.000524954
-0.000723718
-0.000360424
-0.00170755
-0.00269973
-0.0019869
-0.00204997
-0.00214609
-0.00225209
-0.00230461
-0.00243158
-0.00238025
-0.00232309
-0.00204813
-0.00174001
-0.00142095
-0.00111667
-0.000853222
-0.000704174
-0.000606345
-0.000574677
-0.000848178
-0.000578685
-0.00260384
-0.00392205
-0.00182595
-0.00188115
-0.00195732
-0.00204473
-0.00208659
-0.00218188
-0.0021338
-0.00206905
-0.00183952
-0.00157843
-0.00130151
-0.00103718
-0.000805536
-0.000680458
-0.000604008
-0.000618228
-0.00096372
-0.000774049
-0.0032676
-0.00455846
-0.00167974
-0.00172886
-0.00179019
-0.00186192
-0.00189638
-0.00196598
-0.00192098
-0.00185205
-0.00165842
-0.00143475
-0.00119411
-0.000965436
-0.000758565
-0.000657334
-0.000599856
-0.000654243
-0.00105674
-0.000921472
-0.0036853
-0.0048323
-0.00155217
-0.00159521
-0.00164568
-0.00170347
-0.00173311
-0.00178141
-0.00173825
-0.0016694
-0.00150245
-0.0013102
-0.0011009
-0.000901664
-0.000718284
-0.000636714
-0.000596753
-0.000683914
-0.00112737
-0.00102947
-0.00394022
-0.00501701
-0.00144287
-0.00148345
-0.00152259
-0.0015702
-0.00159424
-0.00162679
-0.00158431
-0.00151578
-0.00137102
-0.00120392
-0.00101981
-0.000845709
-0.000685675
-0.000618373
-0.000593292
-0.000706261
-0.00117677
-0.00110262
-0.00406523
-0.00513875
-0.00135227
-0.00139263
-0.00142174
-0.00146041
-0.00147905
-0.0014993
-0.00145698
-0.00139039
-0.00126304
-0.0011151
-0.000951598
-0.000798019
-0.000657875
-0.000602802
-0.000589434
-0.000720166
-0.00120536
-0.00114158
-0.00406802
-0.00522416
-0.00128035
-0.00131865
-0.00134133
-0.00137308
-0.00138626
-0.00139672
-0.00135578
-0.00129078
-0.00117724
-0.00104348
-0.000895929
-0.000758594
-0.000634423
-0.000589875
-0.000586525
-0.000726179
-0.00121565
-0.00114801
-0.00395088
-0.00524417
-0.00122564
-0.00126239
-0.00128094
-0.00130793
-0.00131697
-0.00132065
-0.0012809
-0.00121797
-0.00111297
-0.000989065
-0.000853849
-0.000727241
-0.00061467
-0.000579897
-0.000583617
-0.00072626
-0.00121468
-0.00113098
-0.00369553
-0.00507273
-0.00118862
-0.00122579
-0.00124087
-0.00126485
-0.00127046
-0.001271
-0.00123275
-0.00117077
-0.00107058
-0.000954017
-0.000826494
-0.000708078
-0.000603337
-0.000573051
-0.00058182
-0.000721278
-0.0012045
-0.001099
-0.00319477
-0.00424444
-0.00117005
-0.00120531
-0.00121979
-0.00124073
-0.00124521
-0.00124386
-0.00120634
-0.00114614
-0.00104876
-0.00093616
-0.000814295
-0.00070315
-0.000601122
-0.00056815
-0.000582356
-0.000705822
-0.00122495
-0.0011151
-0.00260798
-0.00284521
-0.0024595
-0.00299377
-0.0034079
-0.00374042
-0.00499226
-0.00475443
-0.0021249
-0.00231491
-0.00269205
-0.00300013
-0.00331361
-0.00344198
-0.00379071
-0.00552465
-0.000437674
-1.88822e-05
0.000378671
0.00114989
0.00189736
0.00371658
-0.00174569
-0.00208291
-0.0023742
-0.00264216
-0.00281487
-0.00305819
-0.00293795
-0.00361761
-0.00133166
-0.000407919
1.94127e-05
0.000461755
0.00152071
0.00244423
0.00396414
-0.00188017
-0.00204026
-0.00227615
-0.0024839
-0.00264074
-0.00291158
-0.00274176
-0.00362019
-0.00335743
-0.00315379
-0.00107433
-0.000282384
-9.85403e-05
0.000283953
0.000679704
0.00155897
0.00366882
0.00351944
-0.00180818
-0.00194777
-0.00214686
-0.00232904
-0.00245197
-0.0026877
-0.00259043
-0.00261417
-0.00254945
-0.00178182
-0.00121394
-0.000665114
-0.000241869
-7.35676e-05
-7.09107e-05
0.00030442
0.000615402
0.00153355
0.0037076
0.00285997
-0.00174475
-0.00185811
-0.00201585
-0.00217012
-0.00225849
-0.00245301
-0.00235178
-0.00237246
-0.00188659
-0.00135338
-0.000866583
-0.000448978
-0.000206026
-0.000132383
-4.43714e-05
0.000304818
0.000531023
0.00143131
0.00320595
0.00150007
-0.00165921
-0.00175236
-0.00188041
-0.00200918
-0.00207404
-0.00222862
-0.00213359
-0.00211685
-0.0017226
-0.00128972
-0.000875619
-0.000520671
-0.000290982
-0.000157809
-2.89785e-05
0.000292148
0.000431861
0.00128473
0.00248772
6.78511e-05
-0.00156842
-0.00164683
-0.00175048
-0.00185618
-0.00190321
-0.0020221
-0.00193686
-0.00188995
-0.00156259
-0.00120956
-0.000855316
-0.000548763
-0.000322175
-0.000172908
-2.42654e-05
0.000271448
0.000335303
0.00116489
0.00197552
-0.000863426
-0.0014782
-0.00154425
-0.00162806
-0.00171308
-0.00174676
-0.00183475
-0.00175651
-0.00169088
-0.00141567
-0.00112148
-0.000819005
-0.000552174
-0.000333542
-0.000175799