/*--------------------------------*- C++ -*----------------------------------*\
  =========                 |
  \\      /  F ield         | OpenFOAM: The Open Source CFD Toolbox
   \\    /   O peration     | Website:  https://openfoam.org
    \\  /    A nd           | Version:  10
     \\/     M anipulation  |
\*---------------------------------------------------------------------------*/
FoamFile
{
    format      ascii;
    class       surfaceScalarField;
    location    "2000";
    object      phi;
}
// * * * * * * * * * * * * * * * * * * * * * * * * * * * * * * * * * * * * * //

dimensions      [0 3 -1 0 0 0 0];

internalField   nonuniform List<scalar> 
155308
(
0.195132
-0.00268326
51.7796
-0.13558
0.609924
-0.0122036
0.00866955
42.3109
-1.98712
0.615439
0.242347
0.241302
0.558674
0.0107056
-0.00816067
39.6093
-1.90226
0.534019
0.253785
0.261977
0.44186
-0.00216848
0.000319434
9.7142
-0.252605
-0.643133
0.00644582
-0.00637253
7.36783
0.596156
0.436253
-0.0123953
-0.361572
6.61034
0.570768
11.4293
0.158724
-11.5516
219.115
17.3836
-0.139538
0.0433936
-17.351
190.381
16.3526
0.0132716
0.121336
-16.2045
176.171
0.133538
-0.165653
0.147478
-13.7556
167.928
0.0845402
7.20803
6.94963
-0.324516
-0.144817
0.167116
-10.7336
163.731
-0.199972
4.97956
5.07392
1.02121
-0.236996
0.296759
-10.6416
151.368
1.34017
5.01269
4.24307
-8.5531
18.0964
141.126
-4.4983
-0.00379576
-3.53756
1.27759
-0.138728
-0.497765
-0.484633
-0.143059
-0.572853
1.25872
6.76781
32.3895
-0.555482
-2.8568
-2.47386
-0.652278
-0.198185
-0.143766
-0.1503
-0.000229123
0.00187017
8.53197
-0.00311731
-0.00220382
0.00207418
0.00388831
17.2807
-0.000564743
-0.00545017
-0.00278293
0.00230118
0.0208862
18.3165
-0.0113869
-0.00325726
0.00790565
0.166515
75.9162
0.0261955
-0.013397
-0.0372155
-0.0107258
-0.00556849
0.00176786
-0.00939236
-0.0044373
0.000224832
0.0201637
17.1
-0.0207929
0.0364052
-0.0935415
0.175892
51.6132
-0.0191575
0.00534308
-0.0494254
0.432715
-39.4052
845.525
11.0333
17.675
9.15399
14.1223
0.00206932
-59.7114
773.203
16.9508
16.5057
14.7144
14.3481
0.536238
-53.2496
726.326
15.935
14.9573
13.7507
12.6347
0.620042
-47.4502
696.996
13.5354
11.7976
11.3086
11.9365
0.872844
-45.701
669.274
10.8309
11.4457
12.1491
11.6063
1.81
-40.6691
633.176
10.623
-5.30739
12.2416
25.8569
-3.89141
-35.5588
602.206
-4.01919
6.63944
8.12087
-17.721
-15.6197
36.377
31.6012
-5.90098
9.8524
146.794
0.814767
-2.14236
0.503377
-1.61182
-5.94838
-2.31538
-2.3489
1.5404
12.7014
0.0448445
-2.02795
0.0354009
-0.123928
0.0153593
0.232697
95.3079
-0.116683
-0.0308009
0.0234155
0.171139
93.8102
-0.176601
-0.0214564
0.0182139
0.198161
89.4549
0.0273797
0.847088
333.287
-0.188099
-0.121362
-0.304916
-0.226906
-0.0262484
-0.0214298
-0.0302883
-0.0406324
0.03326
0.0197432
0.0239235
-0.158065
0.00422401
0.161691
75.3153
1.71093
217.781
-0.144614
-0.762836
-0.172143
-0.881322
0.00162874
0.0265264
-0.00188039
-0.0433012
0.396032
-37.1239
849.669
-0.00145415
-56.4558
785.009
0.459932
-50.517
740.481
0.607509
-45.2518
708.926
0.97129
-43.7647
680.369
2.49107
-39.1346
650.93
-4.01317
-34.6633
619.086
-2.56349
8.68978
7.25414
-8.89407
-1.29255
8.48425
145.581
-0.419857
0.0334621
-0.12151
33.72
0.0437856
-0.576204
0.0745781
0.0396824
6.63373
0.240342
-0.0189421
-0.0922681
1.51306
22.2038
-0.00219331
-0.0661097
-0.007228
-0.108471
-0.220116
-0.0717369
-0.215722
-0.830008
1.76433
0.99304
13.8257
91.6342
0.0173838
-0.819334
-0.00738216
0.13678
0.924495
406.03
-0.382202
-0.318135
-0.276166
-0.257636
0.490893
0.6711
-0.449289
-0.578865
0.137586
0.691757
395.394
-0.324197
-0.291535
-0.22351
-0.202974
0.153194
0.58903
373.451
-0.339148
-0.466378
-0.209869
0.0107907
0.173131
0.553758
346.247
0.143595
0.7097
309.447
-0.120405
-0.277043
-0.378761
-0.139357
1.38304
241.255
0.369592
-34.5703
851.626
-0.0122481
-52.816
791.637
0.41844
-47.4091
748.967
0.572776
-42.5779
717.29
0.981497
-41.2671
688.774
2.73931
-36.9893
659.968
8.70193
-34.0007
628.717
1.45612
-37.1579
616.253
-3.81804
3.01462
21.3063
15.4037
1.35334
1.78394
1.79666
9.2361
0.996678
-9.39817
146.255
0.858679
0.510333
-9.49562
131.804
0.736141
4.48408
4.51149
-0.536665
0.324215
0.0246459
-0.00719677
30.7836
-0.140274
-0.0384092
0.250544
1.11761
4.29131
114.026
-3.3635
0.655308
-0.446206
-12.6319
-0.743639
0.928837
12.403
112.026
-0.287315
2.36684
436.602
-8.7477
-6.54036
20.0012
11.4521
-1.39651
-1.30453
2.56468
1.25693
0.026092
0.640891
417.644
0.102353
0.468141
404.873
0.139198
0.403092
382.898
0.175368
0.406269
357.404
0.172539
0.571493
323.744
1.16064
260.802
0.348052
-31.9174
851.617
-0.019136
-48.9835
795.493
0.385593
-44.0815
754.556
0.545837
-39.6555
723.173
1.11544
-38.4636
694.529
3.38232
-34.1458
665.046
7.37492
-29.4283
636.045
6.23293
-33.0581
616.989
2.41549
-37.5381
589.266
9.19418
9.35447
10.1157
10.1907
1.37122
-36.702
546.306
9.31715
9.15489
10.0563
9.99118
-1.16446
-29.495
516.542
9.15381
6.95384
9.77467
8.31663
1.0434
-4.65565
508.797
-4.11347
-10.5852
3.27427
0.489711
0.213269
8.26248
466.836
-12.0168
-15.3844
7.34166
13.4692
-0.761223
2.20704
451.415
-0.0548635
0.526165
427.832
0.0945386
0.337826
412.923
0.134766
0.301633
391.176
0.171018
0.33162
366.958
0.148589
0.501652
335.791
0.984367
276.484
0.325166
-29.2116
850.322
-0.0207215
-45.0258
797.62
0.358871
-40.6264
758.354
0.548662
-36.5992
727.374
1.4739
-35.4512
698.302
5.10414
-33.4742
669.714
6.67584
-32.1574
648.015
5.93131
-33.4959
624.56
2.41492
-35.0876
596.324
1.26985
-34.3589
558.346
-1.13553
-27.6464
532.658
0.912073
-4.40266
501.342
-0.366575
7.6181
481.083
-0.624653
3.18251
443.752
-0.108885
1.66308
422.297
0.0898684
0.264509
419.861
0.13187
0.240999
398.381
0.159205
0.271025
375.302
0.165947
0.395162
346.087
0.714962
288.769
0.29894
-26.5082
848.281
-0.0137676
-41.0002
798.659
0.333024
-37.0878
761.01
0.538346
-33.4469
730.485
1.72889
-32.3816
701.163
6.14521
-27.8188
668.864
6.45936
-27.2177
648.882
5.40012
-30.7541
625.793
2.27718
-31.9345
600.743
1.17246
-31.6491
565.607
-1.09322
-25.4984
540.56
0.839282
-4.09822
509.769
-0.448686
6.97588
488.766
-0.376446
2.86961
466.143
-0.130461
1.49378
445.986
0.0724148
0.207641
425.895
0.116428
0.197058
404.748
0.144535
0.228576
382.651
0.142431
0.330291
354.902
0.592456
299.518
0.27089
-23.8128
845.854
-0.00876689
-36.9376
799.015
0.305231
-33.4797
762.886
0.492252
-30.2295
732.875
1.6456
-29.2929
703.723
5.68084
-25.2079
672.031
5.76389
-24.845
653.384
4.80143
-28.0718
628.477
2.09849
-29.0023
603.758
1.07217
-28.7507
570.464
-0.990522
-23.1978
545.904
0.771558
-3.76526
515.996
-0.350559
6.3136
494.7
-0.394963
2.57717
471.913
-0.119024
1.3319
451.322
0.0557943
0.159458
431.138
0.101453
0.153937
410.382
0.143676
0.184715
389.033
0.137882
0.26749
362.422
0.487195
308.463
0.244335
-21.1175
843.312
-0.00676674
-32.8561
798.955
0.277161
-29.8397
764.263
0.443845
-26.9692
734.77
1.4429
-26.1628
706.025
4.93492
-22.5382
675.385
5.07501
-22.0729
656.177
3.91539
-25.3103
631.371
1.8185
-26.2336
605.865
0.965483
-25.7645
573.899
-0.860217
-20.7919
549.654
0.915184
0.520409
515.109
-0.221471
9.37526
494.638
-0.366037
2.28897
476.729
-0.105871
1.17932
455.836
0.0389796
0.128022
435.677
0.0999086
0.122917
415.329
0.143491
0.152267
394.608
0.141881
0.215145
368.856
0.381672
315.886
0.217038
-18.4462
840.85
-0.00484663
-28.7538
798.656
0.247213
-26.1599
765.286
0.388025
-23.6646
736.294
1.18492
-22.9975
708.04
3.37855
-16.8595
679.879
4.21369
-16.7491
659.919
2.52457
-22.6513
633.819
1.40063
-23.2128
606.489
0.843454
-22.7181
576.348
-0.724387
-18.3123
552.371
0.114124
-13.9633
542.661
-0.17511
-5.48971
519.909
-0.322101
2.01548
480.619
-0.108279
1.02969
459.67
0.0517082
0.0952214
439.578
0.0982389
0.094406
419.667
0.155633
0.119208
399.443
0.136284
0.16538
374.368
0.288734
322.36
0.189254
-15.7706
838.535
-0.00316009
-24.6426
798.228
0.214989
-22.4594
766.051
0.339014
-20.3345
737.51
1.0201
-19.7466
709.537
1.99542
-14.6805
680.131
2.63314
-10.2102
659.098
1.37221
-15.4104
635.593
1.04721
-20.078
606.827
0.722613
-19.5678
578.218
-0.62106
-15.7724
554.45
-0.80771
-12.052
527.029
-0.178864
-4.75789
503.213
-0.260916
1.73673
483.772
-0.157232
0.898844
462.935
0.05024
0.0887864
442.829
0.0969157
0.0722606
423.399
0.154654
0.0920877
403.575
0.130971
0.128268
379.03
0.214059
328.04
0.161158
-13.126
836.499
-0.00227258
-20.5392
797.764
0.142145
-13.7975
766.636
0.280858
-8.41347
738.386
0.811837
-6.79004
710.104
1.58763
-6.49317
682.405
1.4544
-8.51894
659.985
1.02835
-13.0461
636.579
0.902758
-17.0063
607.398
0.620876
-16.4034
579.932
-0.550177
-13.1891
556.102
-0.667319
-10.1046
529.181
-0.165006
-4.00131
505.868
-0.230841
1.46234
486.358
-0.299936
0.789604
465.733
0.0194689
0.10857
445.439
0.096463
0.0607147
426.54
0.140033
0.0684682
407.054
0.123385
0.0985732
382.939
0.152651
332.974
0.132652
-10.4824
834.738
0.000926111
-16.4188
797.302
0.0833773
-11.034
767.094
0.29745
-6.71592
738.908
0.847995
-5.7867
709.267
1.40253
-5.51497
683.823
1.26774
-6.74404
661.092
0.966047
-10.4126
637.164
0.776832
-13.4018
608.108
0.518479
-12.9491
581.287
-0.440172
-10.5746
557.322
-0.543726
-8.11723
530.948
-0.13256
-3.22605
507.989
-0.216328
1.17003
488.457
-0.248162
1.09286
462.047
0.00348258
0.540766
442.414
0.096573
0.0494694
429.135
0.138719
0.053408
409.923
0.115803
0.0726605
386.17
0.097193
337.243
0.104137
-7.85823
833.309
0.00121477
-12.3217
796.911
0.0713817
-8.28638
767.463
0.324922
-5.03851
739.448
0.988462
-4.26523
711.433
1.18977
-4.0702
687.423
1.02072
-5.06581
662.281
0.816117
-7.81412
637.461
0.605097
-10.0745
608.852
0.410227
-9.73546
582.333
-0.328441
-7.94594
558.147
-0.418849
-6.11196
532.329
-0.0994151
-2.42907
509.64
-0.167422
0.881132
490.081
-0.0982855
0.822447
470.599
0.00352812
0.409334
451.409
0.0822839
0.0347517
431.236
0.137892
0.0366742
412.2
0.107718
0.0524399
388.738
0.062954
340.987
0.0755873
-5.2361
832.237
-0.00121898
-8.21432
796.578
0.0490563
-5.52215
767.77
0.224544
-3.36353
740.095
0.782264
-3.42936
713.364
0.846917
-3.29926
689.361
0.732257
-3.41507
662.863
0.599635
-5.22123
637.465
0.440184
-6.7299
609.441
0.229209
-4.87292
583.049
-0.253308
-3.74617
558.617
-0.293474
-4.08908
533.299
-0.0658993
-1.63094
510.889
-0.102001
0.58852
491.261
-0.0675578
0.555083
471.9
0.00266722
0.273553
452.653
0.0826036
0.0226179
432.827
0.138706
0.0305878
413.885
0.0990261
0.0516741
390.706
0.0519572
344.383
0.0444092
-2.61283
831.525
-0.00111177
-4.10281
796.33
0.0268711
-2.76186
768.006
0.112741
-1.68574
740.61
0.473335
-1.74374
713.647
0.487537
-1.68739
688.987
0.440651
-1.71873
663.05
0.365506
-2.61217
637.232
0.223513
-2.53734
609.809
0.0834388
-1.64114
583.477
-0.140864
-1.87707
558.733
-0.167195
-2.04919
533.932
-0.0323718
-0.812069
511.75
-0.0540722
0.301265
492.026
-0.0385173
0.280578
472.757
0.0292884
0.135737
453.441
0.094955
0.00827791
433.926
0.146352
0.012228
415.043
0.0948647
0.0841289
392.09
0.151549
347.876
0.013205
831.197
-0.00120617
796.171
0.00764758
768.157
0.033536
740.935
0.140662
714.558
0.159211
689.119
0.146862
663.076
0.122033
636.788
0.042753
609.923
0.0296497
583.597
-0.0348841
558.538
-0.0506108
534.207
-0.0123974
512.233
-0.0252589
492.4
-0.0205194
473.163
0.0153047
453.765
0.0249957
434.506
0.0431256
415.629
0.141996
392.843
352.311
-51.7477
0.287273
0.00664148
-0.238955
51.6928
-43.4912
-0.00319692
0.729347
0.00544042
-0.732497
43.4921
-40.6237
0.695389
-0.00281419
0.00483079
-0.74094
40.6673
-35.1801
0.644821
-0.0128272
0.00652723
-0.799461
35.341
-32.2838
0.02717
-0.00725512
-0.494578
32.2305
0.528005
-28.2267
0.0101098
-0.0198436
-0.640388
28.2922
0.584596
0.685363
-219.084
0.0268449
-0.634956
219.007
1.7287
-190.458
-0.0115931
0.00109266
-1.72018
190.46
1.8732
-175.811
-0.00258685
0.0126614
-1.76571
175.693
1.51739
-167.87
-0.00199418
-0.0112773
-1.27952
167.645
0.476001
-165.017
0.0316633
-0.0434993
-0.638572
165.192
1.55364
-152.209
0.0805487
-0.056261
-1.43662
152.067
-141.818
3.24052
0.399505
-8.03054
141.319
3.37864
0.819047
0.934888
-0.24312
-33.7152
2.70336
-0.552419
0.428979
-2.69386
33.8291
-8.51954
0.00393398
-0.00549039
8.5206
0.00050374
-17.2561
-0.00281338
0.00243527
0.00453528
17.2522
-0.00033056
-18.2274
-0.00702679
-0.00282673
0.00222006
0.0291222
18.206
-75.7087
-0.0121006
-0.00484321
0.00718669
0.18757
75.5624
0.0325476
-0.00934153
-0.0419513
-0.01526
-0.00236656
0.00510614
-17.0324
-0.0113473
-0.000495591
-0.00147731
0.030257
17.0154
-0.0125176
0.0428124
-51.547
-0.0581361
0.124851
51.4871
-0.00446092
0.00794428
-0.0404704
0.022578
-1.48032
845.514
0.581687
1.4
-0.212183
-0.300353
-0.0258889
-2.87998
773.163
1.73844
1.82521
-0.259458
-0.335153
-0.0563806
-2.37748
726.096
1.77016
1.51263
-0.3188
-0.325916
-0.135106
-1.80761
697.595
1.2075
0.864571
-0.401406
-0.383803
-0.233939
-1.4742
670.448
0.691266
0.718856
-0.460966
-0.549965
0.549709
-7.87663
634.945
1.36615
4.66146
-0.450261
-0.253221
1.29829
-10.9938
595.115
1.40013
-0.00584546
-0.134666
7.90944
7.98007
0.0109384
0.176677
-143.742
6.20899
-3.52097
141.277
0.501856
0.3286
0.135222
0.109413
-14.6929
-1.85063
14.8
-0.143567
1.88714
-0.167195
-0.0578402
-95.2531
0.0399145
0.335594
95.1026
-0.219418
-93.7258
-0.0404948
0.0296483
0.373731
93.5824
-0.297664
-0.0384715
-89.4428
0.0266893
0.417387
89.3349
0.0163012
1.22695
332.962
-0.295316
-0.217427
-0.194345
-0.146175
-0.0237575
-0.0250985
-0.0262549
-0.029132
0.0223327
0.00599415
0.0111502
-0.2293
-75.3069
0.0029678
0.268998
75.2803
1.88218
218.491
-0.0798757
-0.631685
-0.0875135
-0.677556
0.0133992
0.0401952
0.00315004
-0.031075
0.00574864
-1.54676
849.73
-0.0199235
-2.77566
784.931
-0.0517322
-2.30412
740.44
-0.111864
-1.95028
709.129
-0.192649
-1.77577
680.752
0.813336
-7.74414
649.791
1.49746
-8.86232
615.374
1.29004
-0.170376
-0.222286
-148.52
3.01334
0.884199
-3.29139
149.411
-34.5131
0.556189
-0.150312
0.0846493
-0.217675
34.2402
-24.7599
-0.00164623
0.00984881
-0.412262
24.7955
0.368472
0.259827
0.027953
-22.7146
-2.07951
23.9313
0.0264702
0.178755
0.10114
0.14561
0.0113443
0.0858041
0.0258849
0.735948
-11.7006
411.657
1.69201
1.85203
0.163232
0.137868
3.72257
-0.26761
0.218007
-0.0851505
-98.9295
-98.7199
-105.703
-104.773
0.143455
1.71002
406.437
-0.66151
-0.611714
-0.111671
-0.138633
0.145976
1.23653
395.644
-0.592579
-0.568575
-0.171985
-0.155257
0.129783
1.05095
373.872
-0.614755
-0.739112
-0.163115
0.0610844
0.115643
0.92933
346.559
0.0232355
0.957137
309.697
-0.239845
-0.404664
-0.362197
-0.10966
1.81086
242.395
-0.00170522
-1.5325
851.614
-0.0197964
-2.65214
791.532
-0.0473876
-2.22052
748.911
-0.09134
-1.96253
717.346
-0.145319
-1.87738
688.93
0.934674
-7.5076
658.651
1.51634
-9.05646
628.33
0.0915564
-2.56673
617.08
1.94175
1.35572
0.28414
-0.478563
-0.0343836
-0.0125567
0.108646
0.339177
0.0891436
-0.458308
147.345
-147.224
-132.14
1.15051
-0.0516351
0.0719747
-1.14261
132.112
-121.463
0.720404
-0.0180386
-1.5443
121.494
0.738216
0.0309879
0.0865408
-0.0450474
2.20261
0.283222
-113.671
-1.74377
-14.43
117.575
5.71969
1.45564
2.60888
-7.04901
-20.0016
461.341
8.03117
7.08919
-0.00132463
0.319732
0.816238
0.869698
-0.0172843
0.0727776
-113.351
-109.328
-115.019
-113.773
-1.37585
-11.4137
430.642
-0.229557
3.29298
414.915
0.098993
1.00671
404.775
0.11963
0.817147
383.111
0.124235
0.741947
357.586
0.101338
0.797552
323.926
1.47965
262.167
-0.0039804
-1.47292
851.561
-0.0176527
-2.50173
795.357
-0.040401
-2.12471
754.483
-0.0703495
-1.92174
723.163
-0.0747187
-1.88015
694.537
1.29372
-6.97977
663.149
1.45317
-8.68341
635.513
0.115026
-3.07493
618.836
0.0887657
-1.26832
589.925
0.531556
0.764249
-0.395134
-0.264538
0.044377
-1.88417
546.148
1.07705
1.33692
-0.149843
-0.176778
-0.678791
-6.66786
518.919
1.45348
3.25459
-0.127246
0.433805
-2.07338
-14.0792
490.752
14.2353
16.2022
1.83643
1.24571
-8.19983
-22.7872
475.749
-3.65275
-10.7868
446.241
-0.629099
3.10472
424.997
0.0493877
0.809894
412.442
0.0914792
0.649909
391.302
0.108344
0.612592
367.071
0.0979106
0.691074
335.907
1.20144
277.927
-0.00420419
-1.40547
850.258
-0.0143397
-2.36034
797.489
-0.0317393
-2.03199
758.279
-0.0469496
-1.86711
727.334
0.0460156
-1.83577
698.165
1.56314
-3.38094
664.598
0.86273
-2.84863
642.88
0.0994742
-0.860526
623.109
0.106795
-1.39919
596.448
-0.00627906
-1.78495
558.361
-0.673728
-6.22447
532.883
-2.09912
-13.4444
502.134
-7.82501
-21.5345
485.557
-5.3827
-25.9176
456.441
-0.779222
-11.8417
432.64
0.0285382
0.659806
419.203
0.0753093
0.52655
398.457
0.108735
0.510915
375.37
0.109775
0.565614
346.211
0.884532
290.36
-0.0034362
-1.33178
848.21
-0.0108613
-2.20751
798.513
-0.0226018
-1.91626
760.906
-0.0277133
-1.79142
730.414
0.11123
-1.7884
700.977
1.53697
-3.17077
667.228
0.217401
-2.79788
650.15
0.149621
-0.991264
625.992
0.122065
-1.35189
600.723
-0.0112732
-1.68676
565.642
-0.61821
-5.77377
540.716
-1.96252
-12.5622
510.231
-6.9062
-20.352
492.527
-6.53559
-24.3974
464.253
-0.803768
-11.0458
439.458
0.0254507
0.53932
425.186
0.0886556
0.421282
404.791
0.121624
0.418773
382.711
0.0740186
0.466326
355.049
0.709583
301.033
0.000834309
-1.23955
845.761
-0.00440621
-2.04263
798.855
-0.0137687
-1.79594
762.775
-0.0167713
-1.6927
732.78
0.0950694
-1.70014
703.523
1.44442
-3.02362
670.534
0.169871
-2.68802
654.549
0.198008
-0.994712
628.452
0.128885
-1.30206
603.778
-0.00688252
-1.58594
570.499
-0.551209
-5.29049
545.965
-1.67202
-11.5758
516.131
-3.99091
-8.34096
485.008
-5.87666
-12.4662
461.868
-0.75672
-10.2655
445.422
0.0237144
0.43506
430.462
0.102484
0.336399
410.388
0.121796
0.339874
389.093
0.0771565
0.378542
362.554
0.574322
310
0.00515076
-1.15223
843.22
-0.000620606
-1.86684
798.785
-0.00649282
-1.65183
764.124
-0.00625444
-1.5645
734.642
0.0892593
-1.58244
705.812
1.26698
-2.83605
674.02
0.201815
-2.51216
657.067
0.118998
-1.00499
631.464
0.112485
-1.28174
605.851
-0.00394402
-1.46716
573.897
-0.447516
-4.78175
549.589
-2.07231
-21.7195
526.878
-1.54041
-18.4809
504.247
-5.15072
-11.4617
479.335
-0.692444
-9.32187
450.434
0.0215025
0.349654
435.049
0.0880294
0.262361
415.337
0.108691
0.267584
394.659
0.0750878
0.290372
368.977
0.441833
317.452
0.00643055
-1.03553
840.727
0.000407868
-1.67429
798.469
-0.00141038
-1.49081
765.127
0.000140778
-1.41971
736.148
0.0706596
-1.44223
707.829
0.719565
-1.06891
677.463
0.184543
-0.835001
658.777
-0.0950917
-1.24242
634.336
0.0586755
-1.44532
606.499
-0.00527604
-1.34763
576.293
-0.375654
-4.24491
552.205
-1.72201
-6.65661
528.945
-1.21597
-4.46748
505.39
-4.54562
-10.193
482.68
-0.702922
-8.23412
454.74
0.00408043
0.314123
438.906
0.0728059
0.206977
419.654
0.0946623
0.20959
399.479
0.0700998
0.219595
374.463
0.331338
323.925
0.00475772
-0.918542
838.413
0.0040328
-1.46591
798.02
0.0015951
-1.31329
765.876
0.00391889
-1.25326
737.341
0.0561961
-1.27279
709.315
0.210087
-1.00642
679.915
0.124392
-0.818253
659.167
-0.226914
-1.10323
635.805
0.0188176
-1.2695
606.406
-0.00532843
-1.19003
578.085
-0.338636
-3.68765
554.226
-0.651937
-5.78496
526.47
-1.04018
-3.92186
503.056
-4.0519
-8.77512
485.366
-1.00781
-6.92746
458.584
-0.0585668
0.40735
441.787
0.0715888
0.174601
423.302
0.0939021
0.16022
403.602
0.0636765
0.159396
379.121
0.239555
329.601
0.00562059
-0.780144
836.355
0.00506563
-1.23621
797.535
0.00203616
-1.11456
766.44
0.0135199
-1.0697
738.191
0.104429
-1.07293
709.813
0.148258
-0.843776
682.198
0.12035
-0.697013
659.892
-0.123859
-0.895551
636.616
0.0333328
-1.0492
607.02
-0.000667966
-1.02334
579.799
-0.284835
-3.11034
555.809
-0.549703
-4.8675
528.528
-0.87764
-3.31588
505.59
-3.63043
-7.24528
487.581
-1.53229
-4.95098
461.659
-0.196496
1.09507
443.415
0.0563474
0.165872
426.296
0.0930315
0.116908
407.061
0.0444903
0.109018
383.038
0.161197
334.516
0.00627918
-0.6418
834.593
0.00259826
-1.01224
797.082
0.00376199
-0.906229
766.884
0.0352627
-0.860153
738.667
0.331636
-1.62091
709.519
0.138655
-1.41658
684.589
0.123105
-0.567462
660.978
0.0158709
-0.724633
637.101
0.0385656
-0.844911
607.882
0.000664967
-0.837427
581.139
-0.230446
-2.51079
556.954
-0.464551
-3.92652
530.242
-0.711783
-2.68549
507.606
-3.14076
-5.78904
489.43
-2.08637
-9.51794
465.56
-0.289546
-4.44114
446.154
0.0419484
0.134357
428.835
0.0924223
0.084387
409.905
0.0359684
0.0772655
386.258
0.100698
338.77
0.00383905
-0.489639
833.153
0.00285311
-0.761023
796.661
0.00454816
-0.691417
767.246
0.0462466
-0.662084
739.208
0.482577
-1.19925
710.575
0.123514
-1.04545
687.411
0.100921
-0.434495
662.171
0.0495222
-0.549645
637.337
0.0196258
-0.642326
608.679
0.00393834
-0.639272
582.151
-0.174966
-1.89175
557.707
-0.359415
-2.96097
531.548
-0.560479
-2.03897
509.195
-2.4911
-4.36855
490.591
-2.18003
-7.13873
467.908
-0.258546
-3.31674
448.363
0.0570552
0.0971355
430.957
0.0928453
0.0636324
412.185
0.0268271
0.0601765
388.821
0.0455088
342.51
0.00123967
-0.330508
832.076
0.00305154
-0.516193
796.331
0.00276456
-0.469739
767.548
0.029256
-0.450227
739.857
0.263979
-0.363634
712.294
0.086567
-0.278144
688.772
0.0718372
-0.299617
662.743
0.040569
-0.372427
637.319
0.0130712
-0.43268
609.259
0.0130548
-0.431914
582.841
-0.100314
-1.26081
558.099
-0.252791
-1.98283
532.473
-0.407104
-1.3697
510.374
-1.78273
-2.92286
491.191
-1.58001
-4.7795
469.338
-0.166412
-2.228
450.151
0.0741114
0.0597786
432.624
0.0945732
0.0398305
413.888
0.0156277
0.0572325
390.788
0.0124749
345.883
-0.00148427
-0.171952
831.368
0.000502715
-0.264708
796.076
0.000409687
-0.234981
767.772
0.0107883
-0.218971
740.368
0.054568
-0.191178
713.431
0.0468176
-0.153847
688.87
0.0426132
-0.152672
662.907
0.0274843
-0.188828
637.063
0.0164794
-0.217833
609.605
0.0172555
-0.212247
583.257
-0.0629275
-0.630961
558.183
-0.145321
-0.99071
533.023
-0.235357
-0.6883
511.158
-1.07026
-1.47551
491.414
-0.926508
-2.40615
470.24
-0.0742828
-1.12362
451.484
0.0774378
0.0276243
433.806
0.10747
0.0204831
415.032
0.0121874
0.102198
392.14
0.0994963
349.268
-0.00158211
831.027
-0.00226683
795.907
-0.00242363
767.922
0.000207699
740.713
0.0101494
714.356
0.0105059
688.964
0.0114318
662.923
0.00944508
636.601
0.00664889
609.708
0.00780961
583.384
-0.0326969
557.947
-0.0478159
533.232
-0.0780461
511.575
-0.359542
491.206
-0.3157
470.713
-0.0414303
452.367
0.00879199
434.484
0.019551
415.639
0.0947717
392.87
353.039
-51.68
-0.0376499
0.000399666
0.0561197
51.6611
0.00189277
-43.4748
-0.0426233
0.0359303
43.48
-0.000407041
-40.678
-0.0281405
-0.00394911
0.00101547
0.0156534
40.6934
-35.4077
-0.0439766
-0.00214331
-0.000473009
0.0142265
35.4401
-32.2992
-0.000311294
-0.00694383
0.0722916
32.281
-0.0469118
-28.3452
0.0125015
-0.0163588
0.0318913
28.3544
-0.0371856
-0.225538
-218.933
0.00318108
0.316609
218.838
-0.183852
-190.412
0.00159668
-0.00613395
0.230304
190.37
-0.133449
-175.601
-0.000196546
-0.00537689
0.177177
175.563
-0.185899
-167.509
0.0130479
-0.018089
0.273756
167.427
-0.286986
-165.099
0.0262953
-0.0362174
0.426748
164.969
-0.270102
-151.933
0.0519843
-0.0546608
0.381721
151.824
0.0257977
-141.204
-0.0642133
0.388291
141.133
-0.00845649
-0.207399
-0.140722
0.0779355
-33.8507
-0.120952
-0.0151649
0.0384696
0.086537
33.8618
-8.51713
0.00218592
-0.00417077
8.52089
-0.00178795
-17.2412
-0.00313622
0.000181544
-0.00202371
17.2463
-8.48144e-05
-18.1841
-0.0005255
6.77756e-06
0.00185352
0.00396194
18.1788
-75.4882
-0.00106231
-0.000949781
0.0027673
0.049911
75.4466
0.0443163
-0.00580076
-0.0427858
-0.00581881
-0.0017201
0.0030182
-16.9921
-0.00115727
0.000467834
-0.0018493
0.00382625
16.9908
0.0068578
0.0407916
-51.4523
-0.0485498
0.00953158
51.4541
0.0058466
0.0180801
-0.0341873
-0.0108277
1.0554
845.451
-0.431027
-0.302837
-0.0593438
-0.188834
-0.0413959
1.01308
773.077
-0.246674
-0.142757
-0.206805
-0.300328
-0.0796098
1.09131
725.981
-0.137211
-0.229164
-0.301539
-0.270471
-0.124956
1.32282
697.627
-0.328587
-0.591278
-0.266055
-0.122577
-0.160772
1.51507
670.553
-0.645161
-0.585501
-0.138128
-0.215436
-0.182257
1.46059
634.912
-0.526069
-0.374253
-0.230235
-0.27583
-0.0404065
1.35091
594.962
0.0704053
-0.0661531
-0.151279
-0.378664
-0.306484
-0.314035
-0.193203
-141.005
-0.270707
0.347629
140.924
0.0418908
-2.09431e-05
-0.0638246
-0.0143986
-14.698
0.0273147
14.6499
0.011662
0.00909617
-0.0591491
-0.0397036
-95.0129
0.030111
0.146124
94.9355
-0.0878148
-93.4913
-0.0270706
0.0151118
0.192186
93.399
-0.113981
-0.0227364
-89.2566
0.0103854
0.222025
89.161
0.00405687
0.720999
332.614
-0.123836
-0.0774523
-0.0840566
-0.0596675
-0.00490121
-0.0119121
-0.0168101
-0.0124575
0.0128609
0.00122473
0.000195793
-0.0932223
-75.2242
-0.0116036
0.129735
75.2031
1.07782
218.474
0.0984126
-0.184401
0.0327077
-0.257721
0.027592
0.06107
0.00499379
-0.0187268
-0.0214646
1.02129
849.785
-0.0503673
1.01741
784.955
-0.0915067
1.09982
740.473
-0.135374
1.25648
709.239
-0.17218
1.40699
680.897
-0.220761
1.44035
649.86
0.0838342
1.47667
615.228
0.112114
-0.179841
-0.216352
-0.817189
-148.938
-0.0396931
0.604321
149.275
-34.1556
-0.0151937
-0.00301682
0.0124667
0.0742112
34.0871
-24.8393
-0.0105633
-0.00111379
0.0636158
24.8253
-0.0380082
-0.0097796
-0.00482734
-24.124
24.1192
0.0239198
0.0123924
0.00269424
-0.0639371
0.0594979
-0.00572782
0.0148029
-0.0241793
0.0288359
0.74723
411.425
0.00132882
0.0635515
-0.0203599
-0.0566613
-0.154563
-0.337226
-0.093136
0.0532927
0.116142
0.927535
406.054
-0.38558
-0.374985
0.0752106
0.0536537
0.111027
0.860249
395.537
-0.40194
-0.391926
0.0131098
0.0327994
0.0694366
0.805135
373.883
-0.442695
-0.593748
0.0233973
0.238742
0.0598042
0.748312
346.541
-0.013752
0.686937
309.704
-0.0912864
-0.297903
-0.23076
-0.000579029
1.28581
242.857
-0.0265558
0.964353
851.697
-0.0547212
0.975125
791.602
-0.0923715
1.03846
749.01
-0.129988
1.15269
717.487
-0.163948
1.26605
689.104
-0.205574
1.31752
658.815
-0.189083
1.36355
628.426
-0.0476635
1.40736
616.994
-1.2244
-0.487812
0.504028
-0.219962
-0.175316
0.0128721
0.127949
-0.340371
-147.34
-0.00474054
0.36853
147.269
-0.136915
-132.057
-0.00508448
0.00723558
0.182356
132.01
0.0721699
-121.49
0.00578771
0.100526
121.497
0.0612069
-0.13835
-0.112467
0.0041031
-0.0663443
-0.011063
-117.686
0.0164749
-0.00825956
117.691
-0.0378208
0.0330209
0.0685774
-0.454579
1.21785
461.249
-0.117824
-0.00992963
-0.132404
-0.300641
-0.0467001
-0.109212
-0.0112763
0.0587017
-0.297908
1.53449
429.698
0.041432
1.12421
414.379
0.102756
0.82202
404.751
0.06864
0.757603
383.193
0.0536972
0.708475
357.641
0.00309662
0.684039
323.979
1.14619
262.97
-0.0288916
0.865846
851.689
-0.0541577
0.875231
795.482
-0.0855907
0.931629
754.621
-0.115813
1.01799
723.328
-0.142108
1.10443
694.724
-0.15539
1.15201
663.328
-0.146389
1.19577
635.672
-0.102668
1.20465
618.995
-0.0222191
0.997901
590.004
-0.450654
-0.393935
-0.194883
-0.117592
0.00732963
0.710742
546.059
-0.282703
-0.0857737
-0.0977967
-0.184534
0.0543904
0.543696
518.772
-0.0671597
-0.0972164
-0.195902
-0.082524
0.0275961
0.612765
490.392
-0.0153381
-0.0791987
-0.077537
-0.0525483
-0.905621
1.36173
476.539
-0.662835
1.69571
445.838
-0.016209
1.16815
424.306
0.0820411
0.726313
412.44
0.0653469
0.675038
391.401
0.0491435
0.64365
367.152
-0.0225547
0.651871
336.011
1.00447
278.791
-0.0260494
0.753698
850.397
-0.0478949
0.76867
797.618
-0.0749709
0.811703
758.426
-0.0984863
0.870018
727.506
-0.109073
0.927905
698.352
-0.0853946
0.987107
664.739
-0.109382
1.02411
643.076
-0.0819864
0.994565
623.292
-0.0255181
0.857549
596.532
-0.00365925
0.681038
558.369
0.0349479
0.549914
532.839
-0.0262497
0.616414
502.192
-0.945728
1.26486
486.575
-0.786706
1.62714
456.351
-0.038716
1.07599
431.984
0.0492266
0.615975
419.226
0.0627471
0.573447
398.546
0.0464694
0.556669
375.473
-0.00703874
0.578061
346.338
0.803736
291.36
-0.0211046
0.629339
848.356
-0.0395318
0.641278
798.659
-0.0620859
0.671454
761.069
-0.0797453
0.720722
730.581
-0.0853015
0.763027
701.147
-0.0507892
0.800164
667.38
-0.0911193
0.827269
650.388
-0.0595535
0.808229
626.147
-0.0202706
0.730515
600.811
-0.00827033
0.622812
565.688
0.0220948
0.520316
540.716
-0.016656
0.556921
510.33
-0.837261
1.0146
493.598
-0.822751
1.3328
464.533
-0.0559581
0.943861
438.824
0.0333845
0.508748
425.204
0.0490904
0.472542
404.876
0.0321196
0.463737
382.821
-0.0198926
0.483082
355.196
0.654547
302.057
-0.0186863
0.500074
845.909
-0.0337962
0.513796
798.998
-0.0495388
0.536983
762.925
-0.0624108
0.570883
732.942
-0.0679427
0.598347
703.693
-0.0469999
0.630821
670.683
-0.0706567
0.658505
654.741
-0.0392887
0.644709
628.585
-0.0159864
0.598525
603.887
-0.0098222
0.530005
570.586
-0.00170567
0.447855
546.029
0.0131699
0.456611
516.216
-0.466307
0.593866
485.908
-0.774333
0.939815
462.569
-0.0594629
0.776067
444.875
0.0319826
0.411201
430.468
0.0352331
0.380932
410.477
0.0305263
0.380241
389.181
-0.0380282
0.391464
362.714
0.535312
311.06
-0.0159803
0.401086
843.335
-0.0279498
0.400088
798.911
-0.0381329
0.415321
764.256
-0.047451
0.439574
734.782
-0.0479498
0.463619
705.947
-0.0326859
0.489396
674.146
-0.0465551
0.512483
657.227
-0.0311873
0.508804
631.585
-0.0134925
0.473828
605.958
-0.00837902
0.430746
573.991
-0.00474281
0.371257
549.662
-0.0077894
0.252489
527.085
-0.20522
0.30047
504.738
-0.691959
0.748459
480.013
-0.0475443
0.640129
449.925
0.0302146
0.325165
435.057
0.0344775
0.300017
415.414
0.0427309
0.303863
394.728
-0.0308069
0.309127
369.133
0.419344
318.56
-0.0130935
0.296547
840.844
-0.0194113
0.307371
798.568
-0.0283527
0.326159
765.225
-0.0351953
0.339579
736.255
-0.0354044
0.353366
707.94
-0.0254581
0.368349
677.575
-0.0312986
0.388962
658.906
-0.0408096
0.373014
634.481
-0.0113317
0.355867
606.587
-0.00587841
0.345213
576.373
-0.00475331
0.289607
552.285
-0.0350894
0.252978
528.975
-0.141037
0.328513
505.468
-0.603883
0.607888
483.284
-0.0504127
0.531032
454.296
0.0285577
0.255425
438.897
0.0336017
0.230549
419.718
0.0419616
0.234937
399.54
-0.036706
0.226249
374.625
0.308641
325.054
-0.0100718
0.228359
838.492
-0.0136538
0.235615
798.096
-0.020986
0.249892
765.959
-0.0258656
0.252595
737.433
-0.0278549
0.26186
709.409
-0.0242518
0.269338
680.01
-0.0221507
0.279927
659.274
-0.046039
0.283044
635.919
-0.00934291
0.271749
606.453
-0.00348188
0.259082
578.165
-0.00600142
0.22135
554.297
-0.0168737
0.192391
526.542
-0.111192
0.247495
503.231
-0.528987
0.505048
485.886
-0.115182
0.481402
458.22