/*--------------------------------*- C++ -*----------------------------------*\
  =========                 |
  \\      /  F ield         | OpenFOAM: The Open Source CFD Toolbox
   \\    /   O peration     | Website:  https://openfoam.org
    \\  /    A nd           | Version:  10
     \\/     M anipulation  |
\*---------------------------------------------------------------------------*/
FoamFile
{
    format      ascii;
    class       volVectorField;
    location    "2000";
    object      U;
}
// * * * * * * * * * * * * * * * * * * * * * * * * * * * * * * * * * * * * * //

dimensions      [0 1 -1 0 0 0 0];

internalField   nonuniform List<vector> 
52338
(
(-0.000279937 -0.0104008 9.40296)
(-0.00175126 -0.00839344 7.95402)
(-0.000520239 -0.0125696 7.3179)
(-0.00242699 0.000399005 6.72967)
(0.000969122 0.00945369 6.223)
(-0.00712245 0.00292727 5.6978)
(0.000179917 -0.00561318 10.0685)
(-0.00032973 -0.00187715 8.82525)
(-0.000472259 -0.00058652 8.23493)
(-6.59202e-05 0.000130677 7.80272)
(-6.34693e-05 -5.95377e-05 7.4286)
(0.00135658 0.00118424 7.07341)
(0.00127564 0.000114981 6.56605)
(0.00680599 -0.016907 5.40392)
(0.000524803 7.05901e-05 3.5237)
(0.000437572 7.10135e-05 3.60588)
(0.000479433 7.5521e-05 3.64053)
(0.000664083 0.000309342 3.55634)
(0.000167637 0.000493869 3.17193)
(-0.00376253 0.00209187 2.40096)
(2.72432e-05 0.0011091 9.79288)
(-0.000265034 0.000673669 8.97436)
(-7.30278e-05 0.000543111 8.45944)
(-8.33898e-05 0.000451534 8.06087)
(-0.000211565 0.000607098 7.71596)
(-0.000224846 0.00177852 7.3818)
(-0.00143743 0.00436785 7.00387)
(0.00264905 -0.00498176 6.39892)
(0.00306481 0.0127376 3.40061)
(0.000287232 0.000298141 4.40543)
(0.000455884 9.59537e-05 4.31633)
(0.000582926 0.00020144 4.12977)
(0.00170419 0.000376666 3.84106)
(0.000182881 0.00138228 3.44882)
(-0.00577532 0.00848143 2.54306)
(-2.77186e-05 0.000132605 9.84742)
(-0.000131462 0.000790312 9.08802)
(-7.95941e-05 0.000925517 8.59161)
(-6.79255e-05 0.000921667 8.20043)
(-9.73072e-05 0.000843813 7.86057)
(-0.000195931 0.00146649 7.54116)
(-0.00077982 0.00191302 7.20849)
(0.000585267 -0.00246751 6.81989)
(-0.00309507 -0.00340177 6.14415)
(-0.00626283 0.00708742 4.79198)
(-0.000388326 0.00233058 4.4797)
(-0.00430106 -0.00228854 4.73819)
(0.00133175 -2.91071e-05 4.70936)
(0.000887422 1.31542e-05 4.53106)
(0.00117185 0.000105017 4.30066)
(0.00165415 0.000494145 4.00223)
(-6.08045e-05 0.00195592 3.56668)
(-0.00442366 0.00622669 2.8051)
(-2.4603e-05 0.000147926 9.86865)
(-0.000153554 0.000513497 9.15687)
(-7.81785e-05 0.000580572 8.67919)
(-4.74878e-05 0.000652892 8.29557)
(-2.61847e-05 0.000861669 7.96)
(-0.000115865 0.00086101 7.64648)
(-0.000291827 0.00121748 7.33287)
(-0.000244628 0.00137696 6.98709)
(-0.000726093 0.000159463 6.59032)
(0.000503408 0.000970789 6.07543)
(-0.00111952 -0.00154852 5.61281)
(0.000985309 0.000279185 5.35795)
(0.00115653 -0.000585589 5.17236)
(0.00053914 0.000319449 5.03369)
(0.000670296 -0.000129714 4.8569)
(0.000862291 0.000107653 4.65788)
(0.00112091 0.00018721 4.42294)
(0.00163112 0.00051847 4.13323)
(0.000140185 0.00167506 3.73138)
(-0.00429711 0.0049412 3.02488)
(-1.66655e-05 0.000147992 9.86775)
(-0.00010081 0.000370066 9.19914)
(-9.78426e-05 0.0004753 8.74034)
(-3.79921e-05 0.000507624 8.36457)
(3.3531e-06 0.000459942 8.03282)
(-6.07065e-05 0.000499977 7.72272)
(-0.000194741 0.000754289 7.41687)
(-0.00012899 0.000990968 7.09175)
(-4.26328e-05 0.000741754 6.72012)
(0.000254422 0.000726989 6.33144)
(0.00106252 0.000634171 5.97527)
(0.000972301 0.000809591 5.65661)
(0.000136117 0.000147763 5.40186)
(0.000433314 4.43071e-05 5.17818)
(0.000508601 2.17636e-05 4.97163)
(0.000798879 0.000121769 4.76016)
(0.00102852 0.000212937 4.52533)
(0.00161241 0.000517247 4.24682)
(0.000258225 0.00151927 3.87226)
(-0.00546801 0.00411742 3.20284)
(-1.01177e-05 0.000137959 9.85313)
(-6.87082e-05 0.000193226 9.22476)
(-9.13082e-05 0.000275783 8.78453)
(-2.77347e-05 0.00030973 8.41664)
(-1.71257e-06 0.000329808 8.08843)
(-4.05957e-05 0.000308725 7.78077)
(-9.74789e-05 0.000474849 7.47834)
(-6.25498e-05 0.000634938 7.16246)
(-1.30891e-05 0.000968434 6.81672)
(0.000195198 0.00108658 6.45763)
(0.000612727 0.000766187 6.11452)
(0.000543611 0.000202769 5.79893)
(0.000401862 8.22983e-05 5.52691)
(0.000371276 9.62743e-07 5.28406)
(0.000429932 0.000132678 5.06246)
(0.000744961 0.000127856 4.84671)
(0.000964595 0.000215237 4.61397)
(0.00162072 0.000490516 4.34647)
(0.000389655 0.00131431 3.99447)
(-0.00575134 0.00336082 3.3433)
(-3.83229e-06 0.000128712 9.8307)
(-3.10446e-05 0.000144568 9.2395)
(-7.56647e-05 0.000187485 8.81712)
(-2.64561e-05 0.000223616 8.45697)
(-1.34164e-05 0.000236698 8.13211)
(-3.83896e-05 0.000226439 7.82629)
(-6.84703e-05 0.000322009 7.52552)
(-2.37741e-05 0.000405422 7.21403)
(3.37944e-05 0.000677181 6.88232)
(0.000162165 0.000700728 6.54014)
(0.0004231 0.000691706 6.20706)
(0.000464625 0.000202796 5.89475)
(0.000383404 8.91667e-05 5.61776)
(0.000410376 -3.14833e-05 5.36657)
(0.000408075 0.000129516 5.14063)
(0.000698134 0.000119967 4.92147)
(0.000933324 0.000205844 4.69181)
(0.00161174 0.00045392 4.43367)
(0.000427377 0.00106337 4.09974)
(-0.0066282 0.00251868 3.46878)
(-1.22447e-06 0.000114957 9.8045)
(-1.25481e-05 0.000110826 9.24709)
(-5.67145e-05 0.000138592 8.84154)
(-2.58412e-05 0.000164911 8.48879)
(-1.99947e-05 0.000181461 8.16709)
(-3.95233e-05 0.000192519 7.86266)
(-4.7891e-05 0.000258747 7.56238)
(-4.82593e-07 0.000300554 7.25377)
(5.35285e-05 0.000498477 6.93036)
(0.000134024 0.000552323 6.59902)
(0.000350813 0.000455468 6.27392)
(0.000340085 0.000222587 5.96604)
(0.000374577 0.000151678 5.68856)
(0.000438233 -4.90887e-05 5.43581)
(0.000409927 8.05606e-05 5.20664)
(0.000676313 0.000105132 4.98652)
(0.000913159 0.00019139 4.76032)
(0.0016187 0.000405195 4.51024)
(0.000450971 0.000894571 4.18997)
(-0.0069947 0.00210302 3.57308)
(-1.77131e-07 0.000100168 9.77718)
(-5.81813e-06 9.00388e-05 9.25001)
(-3.94119e-05 0.000107056 8.86002)
(-2.31252e-05 0.000127274 8.51426)
(-1.95491e-05 0.000146834 8.19554)
(-3.65598e-05 0.000173367 7.8921)
(-3.51108e-05 0.000227135 7.59228)
(9.77847e-06 0.000251555 7.28543)
(5.38385e-05 0.000347399 6.96735)
(0.000111453 0.000367431 6.64349)
(0.000278233 0.00033241 6.32466)
(0.000280688 0.000160717 6.02127)
(0.000314121 0.00018176 5.74446)
(0.000422091 -2.61672e-05 5.49286)
(0.000424334 6.19125e-05 5.26276)
(0.000656421 8.99589e-05 5.04303)
(0.000894587 0.000172838 4.82035)
(0.00161812 0.000357416 4.57716)
(0.000476084 0.000736139 4.26747)
(-0.00710828 0.00170647 3.65978)
(-4.69871e-07 8.8097e-05 9.75052)
(-2.07676e-06 7.45349e-05 9.25)
(-2.63027e-05 8.8263e-05 8.87414)
(-1.87671e-05 0.000104179 8.53483)
(-1.34526e-05 0.000123821 8.21897)
(-2.41993e-05 0.000160072 7.9164)
(-2.685e-05 0.000201114 7.61746)
(1.5053e-05 0.000220886 7.31139)
(4.87577e-05 0.000264645 6.99698)
(9.35758e-05 0.000262649 6.67862)
(0.000208459 0.000243953 6.36477)
(0.000264313 0.000135323 6.06446)
(0.000269875 0.000147013 5.79111)
(0.000380695 1.05534e-05 5.53976)
(0.000423807 5.62907e-05 5.31026)
(0.000635867 7.23926e-05 5.09179)
(0.000879882 0.000152053 4.87246)
(0.00160496 0.000308239 4.63506)
(0.000480821 0.000585191 4.33393)
(-0.00734844 0.00128486 3.73542)
(4.32729e-07 7.52911e-05 9.72565)
(-8.38134e-08 6.11122e-05 9.24828)
(-1.7713e-05 7.61728e-05 8.88499)
(-1.37625e-05 8.86132e-05 8.55153)
(-5.56151e-06 0.000105432 8.23848)
(-1.50009e-05 0.000138378 7.93743)
(-1.09162e-05 0.000167164 7.63791)
(1.56474e-05 0.00018063 7.33319)
(4.26927e-05 0.000197922 7.02125)
(8.06178e-05 0.000189106 6.70715)
(0.000156408 0.000183844 6.3974)
(0.000193613 0.000102297 6.10133)
(0.000218445 0.000112616 5.82761)
(0.000350495 3.37006e-05 5.57836)
(0.000417012 5.01026e-05 5.3501)
(0.000618704 5.40177e-05 5.13336)
(0.00087143 0.000129816 4.9171)
(0.00158902 0.000259163 4.68448)
(0.000480355 0.000463382 4.39051)
(-0.00753514 0.000970661 3.80157)
(-4.69444e-07 6.59506e-05 9.70333)
(1.99947e-07 4.96918e-05 9.2457)
(-1.74495e-05 7.12169e-05 8.89319)
(-9.71319e-06 7.25002e-05 8.56515)
(-4.68109e-06 8.5922e-05 8.25478)
(-1.85219e-05 0.0001315 7.95504)
(2.70047e-06 0.000120648 7.65547)
(1.81776e-05 0.000129121 7.35087)
(3.98392e-05 0.000145555 7.04119)
(7.26604e-05 0.000143186 6.73033)
(0.000131451 0.000144248 6.42382)
(0.000167769 0.000102255 6.13032)
(0.000199494 0.000104286 5.85797)
(0.000319979 4.85328e-05 5.60999)
(0.000416044 4.68866e-05 5.38306)
(0.000609878 4.47798e-05 5.16819)
(0.000871188 0.000107398 4.95462)
(0.00158008 0.000210184 4.72592)
(0.000467 0.000357506 4.43808)
(-0.0077261 0.000700203 3.85886)
(-3.78142e-06 5.40173e-05 9.68405)
(-1.66562e-07 3.92208e-05 9.24288)
(-1.74238e-05 6.15636e-05 8.89987)
(-8.85931e-06 5.43185e-05 8.57599)
(-8.6004e-06 6.0401e-05 8.26844)
(-1.08027e-05 7.26403e-05 7.96891)
(9.19493e-06 8.41138e-05 7.66945)
(2.16101e-05 8.95736e-05 7.36531)
(4.12051e-05 0.000109388 7.05725)
(7.00901e-05 0.000111642 6.74882)
(0.00011538 0.000113656 6.44487)
(0.000159237 8.88354e-05 6.15348)
(0.00019813 8.82271e-05 5.88239)
(0.000299264 5.46987e-05 5.63549)
(0.000412509 3.91977e-05 5.41012)
(0.000597939 4.77238e-05 5.19614)
(0.000876927 8.70633e-05 4.98534)
(0.00157261 0.000165453 4.75978)
(0.000447396 0.000276546 4.47733)
(-0.00789379 0.000481096 3.90831)
(-6.93533e-06 3.99612e-05 9.66817)
(-3.5284e-06 3.0396e-05 9.24022)
(-1.52658e-05 4.82041e-05 8.90475)
(-8.7073e-06 3.88145e-05 8.58442)
(-7.68523e-06 4.37193e-05 8.27869)
(-6.14467e-06 5.38232e-05 7.98007)
(1.00655e-05 6.38352e-05 7.68029)
(2.4321e-05 6.63422e-05 7.37656)
(4.38392e-05 8.42869e-05 7.06974)
(6.93544e-05 9.0266e-05 6.76304)
(0.000110332 8.68751e-05 6.46112)
(0.00015552 6.81836e-05 6.1714)
(0.000193267 6.94699e-05 5.90137)
(0.000287287 5.35086e-05 5.65538)
(0.000418447 3.15452e-05 5.43062)
(0.000601173 5.05849e-05 5.21906)
(0.00087863 6.85649e-05 5.00954)
(0.00157059 0.000134238 4.78641)
(0.000437024 0.000218162 4.50883)
(-0.00808077 0.000291095 3.95138)
(-8.87537e-06 2.67251e-05 9.656)
(-6.45453e-06 2.22175e-05 9.23802)
(-1.35625e-05 3.45411e-05 8.90828)
(-8.56623e-06 2.81334e-05 8.59058)
(-6.28035e-06 3.25742e-05 8.28609)
(-2.06994e-06 3.98514e-05 7.98793)
(1.02503e-05 4.93131e-05 7.68808)
(2.53337e-05 5.00248e-05 7.38472)
(4.50162e-05 6.61005e-05 7.07881)
(6.8416e-05 7.07075e-05 6.7733)
(0.000110832 6.97212e-05 6.47303)
(0.000152957 4.82082e-05 6.18451)
(0.000187035 5.05027e-05 5.91528)
(0.00027866 4.53834e-05 5.67)
(0.00041415 2.97995e-05 5.44623)
(0.000592893 3.83223e-05 5.23572)
(0.000874208 4.66066e-05 5.02748)
(0.00157556 0.000101158 4.80617)
(0.000452301 0.000192113 4.53305)
(-0.00830516 0.000222357 3.99015)
(-9.47539e-06 1.58503e-05 9.64773)
(-8.03718e-06 1.42051e-05 9.23642)
(-1.21941e-05 2.12358e-05 8.91055)
(-7.80001e-06 1.83541e-05 8.59456)
(-4.35923e-06 2.32059e-05 8.29081)
(-4.51383e-07 2.70969e-05 7.99276)
(9.46996e-06 3.39249e-05 7.69296)
(2.43535e-05 3.31444e-05 7.38991)
(4.35888e-05 4.29453e-05 7.0846)
(6.60974e-05 4.53981e-05 6.78011)
(9.89493e-05 3.31065e-05 6.4806)
(0.000147261 2.86662e-05 6.19308)
(0.00018035 3.07379e-05 5.92438)
(0.000262751 3.10056e-05 5.67958)
(0.000390785 2.32171e-05 5.4565)
(0.000557698 2.06261e-05 5.24676)
(0.000830628 1.94964e-05 5.0394)
(0.00156708 5.75555e-05 4.81933)
(0.000612769 0.000437441 4.55041)
(-0.00858689 0.000573024 4.0305)
(-9.72871e-06 5.30739e-06 9.64347)
(-1.05013e-05 5.06606e-06 9.23546)
(-1.43675e-05 7.26304e-06 8.91155)
(-1.17003e-05 6.6341e-06 8.59638)
(-1.03481e-05 9.27415e-06 8.29286)
(-1.09367e-05 1.07634e-05 7.99477)
(-7.86198e-06 1.26553e-05 7.69498)
(-3.3296e-07 1.23237e-05 7.39215)
(1.09013e-05 1.65461e-05 7.08731)
(1.17939e-05 1.30962e-05 6.78308)
(2.47423e-05 1.02193e-05 6.48423)
(4.54358e-05 8.8977e-06 6.1972)
(4.45611e-05 1.01234e-05 5.92873)
(6.69546e-05 9.47474e-06 5.68414)
(0.000112614 6.39597e-06 5.46138)
(0.000152154 5.6914e-06 5.25199)
(0.000178124 5.65764e-06 5.04498)
(0.000470579 1.71845e-05 4.82545)
(0.000333868 2.97792e-05 4.5602)
(-0.0026894 0.000139637 4.08494)
(0.000206038 0.00166859 9.45597)
(-0.000177194 0.00197134 8.1231)
(0.00053238 0.0014382 7.48661)
(0.000392692 0.00339322 7.04033)
(-0.0012144 0.00426637 6.35729)
(-0.00618558 0.00383857 6.05454)
(0.000616678 0.00152224 10.0877)
(-0.000341204 0.0011797 8.85279)
(9.77462e-05 0.000993832 8.26674)
(-0.000320343 -0.000101749 7.83247)
(-0.000846494 0.000792513 7.4564)
(-0.0032253 0.00113523 7.11101)
(-0.00440023 0.00661835 6.68599)
(-0.00138689 0.00779487 5.58497)
(0.00106525 0.000200057 3.52339)
(0.000520878 4.70845e-05 3.60546)
(0.00047521 7.23965e-05 3.63932)
(0.000425392 0.000252671 3.55544)
(-9.79178e-05 0.000336537 3.17118)
(-0.0037099 0.000939876 2.39863)
(0.00011144 0.000643513 9.79378)
(-0.000116491 0.000581021 8.97962)
(-8.15713e-05 0.000592318 8.46579)
(-0.000301394 0.000729921 8.06714)
(-0.000541389 0.000988259 7.72272)
(-0.000617796 0.00127788 7.39552)
(0.000230666 0.00226319 7.03097)
(-0.00318025 0.00895787 6.5103)
(-0.00150376 -0.00398287 3.82724)
(0.00147322 0.000427767 4.40436)
(0.000517887 8.31573e-05 4.31541)
(0.000468716 0.000170121 4.12877)
(0.00102298 0.000413944 3.83999)
(-0.000251999 0.000930063 3.44809)
(-0.00535565 0.00857979 2.55958)
(-5.30694e-05 0.000646203 9.84917)
(-0.000121645 0.000643156 9.09171)
(-0.000109808 0.00060359 8.59589)
(-0.000254993 0.000718557 8.2048)
(-0.000461187 0.00110492 7.86542)
(-0.00053111 0.00132391 7.54818)
(-0.000282425 0.00172207 7.22233)
(-0.00121958 0.00569082 6.86826)
(0.00405523 0.00565627 6.21859)
(0.00063253 0.00677587 5.07641)
(0.00549893 0.00555256 4.46423)
(0.00180372 0.000992913 4.82803)
(0.00135005 0.000170621 4.70832)
(0.000893218 8.84347e-05 4.53035)
(0.000912477 0.00016359 4.29989)
(0.000947127 0.000476571 4.00141)
(-0.000831586 0.00175875 3.56685)
(-0.00442852 0.00670281 2.8225)
(-7.81697e-05 0.00061148 9.86976)
(-0.000112676 0.000631754 9.15907)
(-0.000119265 0.000666848 8.68206)
(-0.000205662 0.000742724 8.29868)
(-0.00034769 0.000869457 7.96346)
(-0.000435246 0.00129787 7.65151)
(-0.000344493 0.00163313 7.34099)
(0.000329733 0.00192083 6.99604)
(0.000739274 0.00234524 6.61226)
(0.000780161 0.000282413 6.10985)
(-0.000258783 0.00259141 5.69928)
(-0.000647182 0.00515631 5.38312)
(0.00217698 0.0014416 5.21985)
(0.00146675 -1.59612e-06 5.03751)
(0.000866624 0.000147868 4.85564)
(0.000816147 0.000171735 4.6573)
(0.000844147 0.000213763 4.42239)
(0.000969541 0.000493089 4.13264)
(-0.000409202 0.00153717 3.73197)
(-0.00311668 0.00603412 3.04291)
(-7.60968e-05 0.000438506 9.86836)
(-0.000129097 0.000515858 9.20044)
(-0.000107976 0.000551352 8.7423)
(-0.000163232 0.000642419 8.36681)
(-0.000261628 0.000847431 8.0354)
(-0.00033416 0.001116 7.72655)
(-0.000221131 0.0014407 7.42238)
(0.000233917 0.0018663 7.09757)
(0.000698251 0.00114674 6.7262)
(0.00045504 0.000732686 6.33861)
(-4.9978e-05 0.00085343 5.98289)
(0.000847102 0.00174405 5.66636)
(0.00128237 0.0011828 5.40709)
(0.00129814 0.000266501 5.17845)
(0.000657011 0.000168846 4.9698)
(0.000708292 0.000164092 4.75961)
(0.000750849 0.000234736 4.52489)
(0.00096723 0.000482338 4.24637)
(-0.000218528 0.00128651 3.87244)
(-0.00423112 0.00439148 3.22255)
(-6.72595e-05 0.000332408 9.85343)
(-0.000122787 0.000443489 9.22551)
(-0.000100936 0.000492529 8.78588)
(-0.000136242 0.000576823 8.41829)
(-0.000204099 0.00070831 8.09042)
(-0.00024702 0.000917131 7.7838)
(-0.000138229 0.00119469 7.48248)
(0.00019276 0.00146363 7.16685)
(0.000462525 0.000993644 6.82116)
(0.000354659 0.00069433 6.46221)
(0.000140993 0.000933637 6.11885)
(0.000650601 0.00169516 5.80182)
(0.00103273 0.000933604 5.52873)
(0.000942832 0.000297 5.28441)
(0.00058094 0.000116125 5.06167)
(0.000628696 0.000146005 4.84622)
(0.000687222 0.000228772 4.61361)
(0.000971809 0.000445939 4.34604)
(-5.27534e-05 0.0010671 3.99507)
(-0.00481686 0.00341516 3.365)
(-5.13646e-05 0.000252132 9.83081)
(-0.00011156 0.000343473 9.23992)
(-9.32518e-05 0.000407347 8.81806)
(-0.000113957 0.000475788 8.45818)
(-0.00015879 0.000582118 8.13368)
(-0.000182027 0.000747156 7.82897)
(-8.12396e-05 0.000972989 7.52869)
(0.000145137 0.00111555 7.21728)
(0.000323176 0.000877913 6.8856)
(0.000284659 0.00073359 6.54331)
(0.000207112 0.000783608 6.20984)
(0.000467568 0.00122584 5.89651)
(0.000756368 0.000833219 5.61856)
(0.000717942 0.000280469 5.36725)
(0.000562914 0.000114997 5.1404)
(0.000603925 0.000138126 4.92104)
(0.000673449 0.000216437 4.69146)
(0.000988667 0.000417473 4.43332)
(1.72731e-05 0.000888344 4.10021)
(-0.00574148 0.0024362 3.489)
(-4.08858e-05 0.000194634 9.8045)
(-9.13466e-05 0.000263769 9.24731)
(-8.35889e-05 0.000324935 8.84219)
(-9.46701e-05 0.000384655 8.4897)
(-0.000126504 0.000471525 8.16831)
(-0.00013364 0.000597995 7.86476)
(-4.88312e-05 0.000768203 7.56511)
(0.00010897 0.000846648 7.25633)
(0.000229299 0.00072324 6.93288)
(0.000227507 0.000610684 6.60132)
(0.000198978 0.000693492 6.27581)
(0.000397005 0.000843831 5.96725)
(0.00057831 0.000619766 5.68881)
(0.000565405 0.000260197 5.43559)
(0.000508338 0.000174399 5.20638)
(0.000575514 0.00013309 4.98612)
(0.000662287 0.000200866 4.75998)
(0.0010074 0.000374395 4.5099)
(5.52326e-05 0.000741151 4.19047)
(-0.00621745 0.00198578 3.59351)
(-3.37146e-05 0.000152712 9.77715)
(-7.19392e-05 0.000203494 9.25013)
(-7.28405e-05 0.000258849 8.86048)
(-7.8036e-05 0.000308502 8.51494)
(-9.95126e-05 0.000379201 8.19649)
(-9.91627e-05 0.000491696 7.89378)
(-2.99937e-05 0.000600129 7.59452)
(8.22763e-05 0.000653704 7.28744)
(0.000166837 0.000604961 6.96927)
(0.000177083 0.000529307 6.64519)
(0.000191585 0.000574671 6.32599)
(0.000331542 0.000647574 6.02233)
(0.00048829 0.00046814 5.74466)
(0.000446519 0.000278339 5.49247)
(0.000451326 0.000181469 5.26238)
(0.00053648 0.000126196 5.04267)
(0.000647296 0.000183775 4.82002)
(0.00101403 0.000332524 4.57681)
(8.13508e-05 0.000590774 4.26797)
(-0.00647066 0.00158376 3.68048)
(-2.78775e-05 0.000120352 9.75049)
(-5.59424e-05 0.000156471 9.25007)
(-6.20069e-05 0.000207213 8.87445)
(-6.40028e-05 0.000245452 8.53534)
(-7.70676e-05 0.00030294 8.2197)
(-7.54038e-05 0.00039217 7.91774)
(-2.42971e-05 0.000503959 7.6189)
(5.83076e-05 0.000506906 7.3129)
(0.00012289 0.000488333 6.99832)
(0.000138777 0.000436751 6.67987)
(0.000172587 0.000463395 6.36571)
(0.000278509 0.000456252 6.06491)
(0.000412436 0.000353484 5.79147)
(0.000401214 0.000199602 5.5392)
(0.000409511 0.000162821 5.30977)
(0.000496189 0.000118337 5.09143)
(0.000630833 0.000164136 4.87213)
(0.00100919 0.000287636 4.63471)
(8.79352e-05 0.000441319 4.33443)
(-0.00669398 0.001161 3.75617)
(-2.16074e-05 9.32133e-05 9.72562)
(-4.28876e-05 0.000120424 9.24832)
(-5.20777e-05 0.000169146 8.8852)
(-5.33479e-05 0.000193113 8.5519)
(-6.24501e-05 0.000238893 8.23903)
(-6.13908e-05 0.000282143 7.93817)
(-1.83198e-05 0.000389039 7.63915)
(4.11067e-05 0.000401529 7.33397)
(9.61346e-05 0.00037892 7.02216)
(0.000116599 0.000349231 6.70806)
(0.000160742 0.000364612 6.39805)
(0.000253222 0.000358929 6.10168)
(0.000359061 0.000303717 5.82755)
(0.000379305 0.000156697 5.57774)
(0.000378707 0.000143355 5.34945)
(0.000457034 0.000111229 5.1329)
(0.000615398 0.000141436 4.91676)
(0.000999862 0.000242123 4.68415)
(8.75656e-05 0.000321853 4.39102)
(-0.00689219 0.000851814 3.82229)
(-1.69761e-05 7.2764e-05 9.70331)
(-3.32571e-05 9.24358e-05 9.24573)
(-4.17036e-05 0.0001206 8.89347)
(-4.62007e-05 0.000152536 8.56536)
(-5.12169e-05 0.000180629 8.25529)
(-3.71192e-05 0.000219399 7.95536)
(-7.30142e-06 0.000272182 7.65614)
(3.40197e-05 0.000307062 7.35157)
(7.7518e-05 0.000289336 7.04186)
(0.000104386 0.000271872 6.73099)
(0.000147499 0.000280523 6.42425)
(0.000224691 0.000264961 6.13053)
(0.000312756 0.000218461 5.85782)
(0.000349968 0.000120906 5.60936)
(0.000354765 0.000102966 5.38228)
(0.000432484 0.000100631 5.16753)
(0.00060508 0.000115489 4.95424)
(0.000989378 0.000194122 4.72559)
(7.3146e-05 0.00022514 4.4386)
(-0.00704135 0.000584118 3.87953)
(-1.50672e-05 5.57625e-05 9.68404)
(-2.85101e-05 7.00695e-05 9.2429)
(-3.14426e-05 8.05911e-05 8.89992)
(-3.98052e-05 0.000117005 8.57617)
(-3.88455e-05 0.000129206 8.26873)
(-2.79813e-05 0.000187434 7.96948)
(4.67767e-07 0.00020778 7.66997)
(3.21746e-05 0.000227284 7.36587)
(6.66692e-05 0.000220309 7.05777)
(9.62334e-05 0.000210447 6.74927)
(0.00014074 0.000210511 6.44514)
(0.000203418 0.000190494 6.15356)
(0.000276034 0.000152557 5.8822)
(0.000326189 8.39362e-05 5.63487)
(0.000337589 7.84755e-05 5.40922)
(0.000427333 5.86601e-05 5.19556)
(0.000607555 8.44918e-05 4.98493)
(0.000984787 0.00015053 4.75944)
(5.00386e-05 0.000152073 4.47788)
(-0.00718397 0.000361907 3.92891)
(-1.4432e-05 4.129e-05 9.66818)
(-2.48507e-05 5.16008e-05 9.24025)
(-2.71324e-05 6.48282e-05 8.90479)
(-3.43508e-05 8.66894e-05 8.58455)
(-3.30704e-05 0.000108443 8.279)
(-1.9866e-05 0.000135452 7.98052)
(5.80679e-06 0.000153897 7.68069)
(3.10575e-05 0.000164047 7.37698)
(6.06507e-05 0.000162803 7.0701)
(9.0697e-05 0.000156605 6.76335)
(0.000133016 0.000151235 6.46127)
(0.000190097 0.000133237 6.17141)
(0.000256135 0.000103999 5.90116)
(0.000313786 5.09007e-05 5.65482)
(0.000332644 4.87867e-05 5.42991)
(0.000437844 1.42508e-05 5.21846)
(0.000625309 5.72818e-05 5.00914)
(0.000988832 0.000114628 4.78605)
(3.09105e-05 0.00011674 4.50939)
(-0.00732366 0.000160517 3.97186)
(-1.41011e-05 2.93748e-05 9.65601)
(-2.24932e-05 3.59042e-05 9.23805)
(-2.44812e-05 4.67513e-05 8.90831)
(-2.97762e-05 6.04703e-05 8.59067)
(-2.95227e-05 7.96239e-05 8.28628)
(-1.45205e-05 9.8273e-05 7.98826)
(8.5511e-06 0.000106909 7.68836)
(3.05122e-05 0.000112466 7.38502)
(5.7188e-05 0.00011173 7.07905)
(8.63334e-05 9.92684e-05 6.77357)
(0.000124901 9.96895e-05 6.47304)
(0.000180999 8.69481e-05 6.18449)
(0.000244675 6.45947e-05 5.91509)
(0.000305698 2.22514e-05 5.66954)
(0.000337723 7.14307e-06 5.4456)
(0.000448066 6.89207e-06 5.23525)
(0.000651192 3.34525e-05 5.0271)
(0.00102927 9.40833e-05 4.80579)
(-1.67295e-05 0.000143082 4.53357)
(-0.0074709 4.82888e-05 4.01043)
(-1.39801e-05 1.88126e-05 9.64776)
(-2.12104e-05 2.17545e-05 9.23646)
(-2.24284e-05 2.81947e-05 8.91058)
(-2.54329e-05 3.65841e-05 8.59463)
(-2.40806e-05 4.8544e-05 8.29092)
(-1.10182e-05 5.89666e-05 7.99294)
(9.7422e-06 6.28861e-05 7.69314)
(3.04025e-05 6.63172e-05 7.39011)
(5.45735e-05 6.28106e-05 7.08479)
(8.34593e-05 5.34445e-05 6.78016)
(0.000124918 6.42527e-05 6.48065)
(0.000174059 4.79379e-05 6.19305)
(0.000234456 3.27572e-05 5.92424)
(0.000300309 3.74984e-06 5.67927)
(0.000341802 -1.34199e-05 5.45605)
(0.000455024 -6.26039e-06 5.24641)
(0.000669593 6.90488e-06 5.03904)
(0.0011063 7.46792e-05 4.81893)
(0.000106943 0.000457139 4.55062)
(-0.00762577 0.000235582 4.04927)
(-1.42105e-05 6.69582e-06 9.64353)
(-2.24026e-05 7.4846e-06 9.2355)
(-2.44226e-05 9.42895e-06 8.91158)
(-2.74848e-05 1.26061e-05 8.59643)
(-2.80853e-05 1.75953e-05 8.29294)
(-2.00461e-05 2.13741e-05 7.99488)
(-6.52776e-06 2.28503e-05 7.6951)
(5.14165e-06 2.36645e-05 7.3923)
(1.70589e-05 1.82198e-05 7.08739)
(3.55313e-05 2.18815e-05 6.78318)
(5.04588e-05 1.9882e-05 6.48428)
(6.69704e-05 1.30318e-05 6.19722)
(8.56102e-05 6.76732e-06 5.9287)
(9.44583e-05 -6.22455e-06 5.68404)
(6.41555e-05 -1.44221e-05 5.46122)
(5.5041e-05 -9.46499e-06 5.25189)
(3.81293e-05 -2.59913e-06 5.04485)
(0.00013264 1.66117e-05 4.82532)
(0.000258014 5.63782e-06 4.56006)
(-0.00202587 -2.14865e-06 4.09558)
(0.000115278 0.00214046 9.463)
(-0.000239439 0.00204416 8.1336)
(0.000485793 0.00123431 7.49698)
(0.000207628 0.00313838 7.05458)
(-0.000827643 0.00387715 6.38418)
(-0.00476725 0.00282982 6.08024)
(0.000353128 0.0013747 10.0864)
(-0.00028043 0.00119491 8.85347)
(-1.56779e-05 0.000984291 8.26737)
(-0.000419759 0.000663449 7.83314)
(-0.000726681 0.000974405 7.45627)
(-0.00157203 0.00116631 7.11221)
(-0.00228228 0.00535532 6.69074)
(0.00109252 0.00975659 5.62099)
(0.00126495 1.01549e-06 3.52419)
(0.000575368 2.8695e-06 3.60553)
(0.000406384 1.18949e-05 3.63901)
(0.000191779 0.000102601 3.55516)
(-0.000192131 0.000107645 3.17115)
(-0.00282983 8.54666e-05 2.39858)
(0.00010967 0.000339874 9.79352)
(-7.71326e-05 0.000569447 8.97975)
(-9.27405e-05 0.000680596 8.46602)
(-0.000241123 0.000850226 8.06747)
(-0.00030581 0.00108464 7.72301)
(-0.000397191 0.00112614 7.39679)
(0.000344314 0.0017057 7.03414)
(-0.00240022 0.00277593 6.51141)
(0.000136303 -0.000194734 3.81484)
(0.00106257 0.000197446 4.4044)
(0.000503374 3.04545e-05 4.31495)
(0.000310829 0.00010839 4.12816)
(0.00045915 0.000359728 3.83947)
(-0.000528632 0.00033525 3.44792)
(-0.00390135 0.00438649 2.5626)
(-8.93165e-06 0.000451535 9.84976)
(-7.30783e-05 0.000443402 9.09212)
(-0.000107199 0.00047588 8.59612)
(-0.000211974 0.000619581 8.20505)
(-0.000248046 0.00087953 7.86583)
(-0.000294347 0.000848495 7.5492)
(-4.42002e-05 0.0012641 7.22386)
(-0.000536854 0.00213993 6.87097)
(0.00244172 0.00446928 6.22148)
(0.00100913 0.00417041 5.0925)
(0.00262432 0.000727868 4.48526)
(0.00100447 0.000937466 4.83225)
(0.000720493 0.00010218 4.70781)
(0.000703521 6.83529e-05 4.52995)
(0.000617298 0.000150187 4.29941)
(0.0002824 0.000411083 4.00096)
(-0.00155888 0.000915184 3.56676)
(-0.00231346 0.00440531 2.82991)
(-3.46671e-05 0.000391517 9.87025)
(-4.51459e-05 0.000361285 9.15952)
(-9.95387e-05 0.000415408 8.68238)
(-0.000165905 0.000521146 8.299)
(-0.000174278 0.000617606 7.96394)
(-0.000228049 0.000752171 7.65244)
(-0.000204351 0.00106751 7.34201)
(8.51732e-05 0.00152349 6.99683)
(0.00109762 0.00204396 6.61345)
(0.000913717 0.000795176 6.11127)
(0.000222007 0.00199831 5.70601)
(9.1495e-05 0.00138288 5.40038)
(0.000967645 0.000790172 5.22643)
(0.000671016 -0.000323763 5.03734)
(0.000520213 0.000144122 4.85509)
(0.00060934 0.000135341 4.65696)
(0.000540975 0.0001894 4.42204)
(0.000251057 0.000423305 4.13229)
(-0.00123946 0.000852875 3.73188)
(-0.00219908 0.00410079 3.05557)
(-3.2695e-05 0.000289865 9.86873)
(-4.42979e-05 0.000281976 9.20087)
(-7.84643e-05 0.000324954 8.74265)
(-0.000126057 0.000425301 8.36717)
(-0.000137978 0.000570526 8.03584)
(-0.000176896 0.000660362 7.7274)
(-0.000141456 0.000898585 7.42339)
(0.000122743 0.00128637 7.09836)
(0.000614314 0.00109571 6.72641)
(0.000551125 0.000733828 6.3391)
(0.000265695 0.000612614 5.98427)
(0.000573419 0.00033713 5.66933)
(0.000654314 1.6407e-05 5.40786)
(0.000781765 2.46875e-05 5.17796)
(0.000357717 0.0001956 4.96902)
(0.000505697 0.000141308 4.75932)
(0.000464549 0.000212705 4.52462)
(0.000206646 0.000405811 4.24612)
(-0.00109014 0.000830522 3.87251)
(-0.00300058 0.00312832 3.23513)
(-2.9305e-05 0.000234024 9.85371)
(-3.90877e-05 0.000259357 9.22588)
(-6.57119e-05 0.000295961 8.7862)
(-0.000105491 0.000377029 8.41862)
(-0.000111558 0.000475635 8.09084)
(-0.000133567 0.000563087 7.78463)
(-9.76794e-05 0.000756466 7.48324)
(0.000139091 0.00101649 7.1674)
(0.000437036 0.000797389 6.8215)
(0.000416149 0.000480208 6.46249)
(0.000221108 0.000397039 6.11973)
(0.000422455 0.000481889 5.80372)
(0.000613714 0.000274651 5.52913)
(0.000631419 0.000141133 5.2836)
(0.000370354 0.00014549 5.06163)
(0.000420336 0.000132872 4.84595)
(0.000413186 0.000208335 4.61339)
(0.000175625 0.000375941 4.34589)
(-0.0009562 0.000786855 3.99527)
(-0.00331355 0.00255685 3.37908)
(-2.44853e-05 0.000192028 9.83102)
(-4.43226e-05 0.000217709 9.24022)
(-5.77767e-05 0.000253369 8.81835)
(-8.75765e-05 0.000317494 8.45849)
(-9.03716e-05 0.000399916 8.13405)
(-0.000101101 0.00047526 7.82952)
(-6.08189e-05 0.000635422 7.52927)
(0.000119475 0.000795684 7.2178)
(0.00031913 0.000628548 6.88592)
(0.000315414 0.00042576 6.54357)
(0.000185853 0.000301226 6.21045)
(0.000291438 0.000454226 5.8976)
(0.00051932 0.00041636 5.61874)
(0.00048268 0.000171451 5.36716)
(0.000374992 8.98661e-05 5.13991)
(0.00039162 0.000127872 4.92081)
(0.000404155 0.000199229 4.69126)
(0.000169688 0.000350099 4.43321)
(-0.00088636 0.000688582 4.10067)
(-0.00403235 0.00188457 3.50291)
(-2.23115e-05 0.000158046 9.80466)
(-4.35651e-05 0.000184566 9.24755)
(-5.18609e-05 0.000214151 8.84244)
(-7.23191e-05 0.00026655 8.48996)
(-7.41682e-05 0.000332557 8.16862)
(-7.58118e-05 0.000397911 7.86519)
(-3.66457e-05 0.000519579 7.56557)
(9.51667e-05 0.000621382 7.25671)
(0.000230811 0.000499581 6.93318)
(0.000240429 0.00034759 6.6016)
(0.000150316 0.000306464 6.27627)
(0.000245784 0.000383372 5.96799)
(0.000414145 0.00033509 5.68937)
(0.00036939 0.000155982 5.43495)
(0.000359646 0.000128945 5.20597)
(0.000369741 0.000124578 4.98593)
(0.000395371 0.000183264 4.7598)
(0.000174356 0.000315298 4.50981)
(-0.000846515 0.000574081 4.19108)
(-0.00476835 0.00155559 3.60757)
(-2.11548e-05 0.000130706 9.77728)
(-3.88731e-05 0.000154872 9.25031)
(-4.65614e-05 0.000180576 8.86068)
(-5.9924e-05 0.000222072 8.51516)
(-6.07352e-05 0.000273649 8.19674)
(-5.79544e-05 0.000331779 7.89414)
(-2.34004e-05 0.000412927 7.59489)
(7.23717e-05 0.000484732 7.28774)
(0.000168452 0.00041203 6.96953)
(0.000179862 0.000310716 6.64544)
(0.000127949 0.000288889 6.32637)
(0.000220434 0.00041614 6.02239)
(0.000374994 0.000236765 5.74533)
(0.000304958 0.000185543 5.49232)
(0.000320648 0.000119445 5.26199)
(0.000346277 0.000115019 5.04249)
(0.000382934 0.000164027 4.81985)
(0.000175259 0.000280275 4.57675)
(-0.000818912 0.000452376 4.26865)
(-0.00510324 0.00125753 3.69493)
(-1.96444e-05 0.00010756 9.75058)
(-3.3387e-05 0.000128012 9.2502)
(-4.13847e-05 0.000151246 8.87462)
(-5.02375e-05 0.000182878 8.53552)
(-5.14273e-05 0.000222971 8.21991)
(-4.86281e-05 0.000265552 7.91808)
(-1.96551e-05 0.000349228 7.61912)
(5.2563e-05 0.000378534 7.31313)
(0.000124608 0.000333467 6.99855)
(0.000137073 0.000267343 6.68008)
(0.000121217 0.000257747 6.36601)
(0.000171907 0.000312077 6.06583)
(0.000303092 0.000210043 5.79116)
(0.000289212 0.00012566 5.53902)
(0.000289531 9.77073e-05 5.30936)
(0.000326576 0.000105124 5.09125)
(0.000370737 0.000142655 4.87197)
(0.000171072 0.000244398 4.63466)
(-0.000808227 0.000320662 4.33513)
(-0.0053758 0.000899236 3.77075)
(-1.69031e-05 8.71186e-05 9.7257)
(-2.8453e-05 0.000105638 9.24842)
(-3.64394e-05 0.000127073 8.88533)
(-4.32456e-05 0.000148642 8.55206)
(-4.6282e-05 0.000179851 8.23922)
(-4.3525e-05 0.000201307 7.93838)
(-1.57182e-05 0.000275464 7.6394)