# vtk DataFile Version 2.0
sampleSurface
ASCII
DATASET POLYDATA
POINTS 3098 float
0.746192 0 -5.00894e-05 -6.50534 1.11022e-16 -4.7391e-05 0.739507 0 7.49995 7.99812 0
1.94289e-05 -6.5124 -1.11022e-16 7.49992 7.99235 -1.11022e-16 7.50019 -13.7546 0 -1.50031e-05
0.734852 -1.11022e-16 14.9998 15.2496 -1.11022e-16 6.60617e-05 -13.7602 0 7.49982 -6.51784
-1.11022e-16 14.9998 15.2414 -1.11022e-16 7.50009 7.98685 0 14.9998 -13.7648 0
14.9999 -20.9938 0 4.36099e-06 15.2348 -1.11022e-16 14.9998 -20.9936 2.22045e-16 7.49977
22.5022 0 1.49541e-05 0.735071 0 22.4998 -6.51815 -1.11022e-16 22.4999 22.4915
0 7.49989 7.98745 -1.11022e-16 22.4998 -20.9933 -1.11022e-16 14.9999 -13.7652 1.11022e-16
22.4999 22.4829 -1.11022e-16 14.9998 15.2356 0 22.4998 -28.2515 0 2.62893e-05
-28.2534 0 7.50012 29.7556 -1.11022e-16 -4.54549e-05 0.735819 1.11022e-16 29.9999 29.7426
0 7.4992 -6.51767 0 29.9999 -20.9933 -1.11022e-16 22.5 7.98856 0
29.9999 22.4839 1.11022e-16 22.4999 -28.255 0 15 -13.7649 0 30
29.7256 0 14.9997 15.237 0 29.9999 -35.5072 -1.11022e-16 5.90779e-05 -28.2551
0 22.5 -35.5123 1.11022e-16 7.50007 -20.993 1.11022e-16 30 36.9932 0
-7.53554e-05 29.7252 1.11022e-16 22.4999 22.4857 -1.11022e-16 29.9999 0.736256 -1.11022e-16 37.5
37.0663 -1.11022e-16 7.5 -6.5174 0 37.5 7.98913 1.11022e-16 37.5 -35.5169
-2.22045e-16 15 36.9578 0 14.9999 -13.7648 0 37.5 15.2378 0
37.5 -28.255 0 30 -35.5174 0 22.5 29.7273 -1.11022e-16 30
-42.7594 0 0.000106246 -20.9929 1.11022e-16 37.5 36.9398 -3.33067e-16 22.4999 -42.765
0 7.50013 22.4866 -1.11022e-16 37.5 44.3067 1.11022e-16 -0.000173064 44.3156 -5.55112e-17
3.74923 44.3638 -1.11022e-16 7.50044 0.736588 -1.11022e-16 45 -42.7692 2.22045e-16 15.0001
-6.51713 0 45 7.98959 0 45 -35.5174 0 30 44.2537
1.11022e-16 14.9995 -28.2549 0 37.5 -13.7646 -2.22045e-16 45 15.2384 1.11022e-16
45 36.9405 0 30 29.7284 0 37.5 47.8983 5.55112e-17 -0.000231375
47.9106 0 3.74943 -42.7696 1.11022e-16 22.5 48.0131 0 7.50081 44.229
-2.22045e-16 22.4999 -20.9927 -1.11022e-16 45 -50 -1.11022e-16 0.000116555 22.4873 -1.11022e-16
45 -50 -1.11022e-16 7.50012 51.4805 0 -0.000354952 -35.5173 1.11022e-16 37.5
51.6484 5.55112e-17 3.75115 -50 -2.22045e-16 15.0001 51.6711 0 7.50084 -42.7696
0 30 0.736735 -1.11022e-16 52.5 36.9419 0 37.5 51.4953 -1.11022e-16
11.2492 -6.51706 0 52.5 7.98975 0 52.5 -28.2549 0 45
44.2289 -1.11022e-16 30 51.37 -5.55112e-17 14.9994 29.729 -1.11022e-16 45 -13.7646
0 52.5 51.3052 -2.1684e-19 18.7496 51.3048 -2.60209e-18 18.8318 15.2386 -2.22045e-16
52.5 51.3708 -2.38524e-18 18.7496 -50 1.11022e-16 22.5 54.9985 0 -0.00260162
55.0346 0 1.87535 55.1369 0 3.75138 55.3085 5.55112e-17 7.50038 51.2883
-5.55112e-17 22.4998 55.0461 -5.55112e-17 11.249 -20.9927 0 52.5 56.7456 0
0.0299735 56.7783 -2.77556e-17 1.87544 -42.7696 0 37.5 54.8698 0 14.9993
56.8619 2.77556e-17 3.75216 22.4876 1.11022e-16 52.5 -35.5173 -1.11022e-16 45 54.8229
0 17.1162 51.2808 6.93889e-18 26.2499 55.7413 -6.93889e-18 14.9994 54.8037 0
18.7496 44.2298 -1.11022e-16 37.5 36.9422 -2.22045e-16 45 -50 0 30
58.4645 0 -0.244693 58.5154 0 1.88535 58.9168 0 -0.257294 58.9375
1.38778e-17 1.84572 58.8346 1.38778e-17 4.04008 59.1468 -3.46945e-18 1.82581 59.2027 0
-0.270676 59.0815 0 3.9148 54.7907 0 22.4998 59.2532 0 -0.267831
59.2573 0 1.824 58.2324 -1.38778e-17 11.2624 59.254 0 3.02719 58.004
1.38778e-17 12.6256 59.2576 -3.46945e-18 3.82483 51.283 -6.245e-17 30 57.6498 2.77556e-17
14.9995 -28.2548 1.11022e-16 52.5 59.2774 -2.77556e-17 7.62697 58.8187 2.77556e-17 11.263
58.0011 -1.38778e-17 14.9995 0.736891 0 60 58.3071 0 14.9994 29.7293
1.11022e-16 52.5 59.2786 -2.77556e-17 11.2636 -6.5169 0 60 57.4289 2.77556e-17
18.7498 7.98997 -1.11022e-16 60 58.8533 5.55112e-17 14.9994 54.7868 1.249e-16 26.2499
58.0003 -1.38778e-17 18.7498 58.1668 0 18.7498 59.2769 -2.77556e-17 14.9994 51.2799
6.93889e-18 33.75 -13.7644 0 60 57.3667 0 22.4999 58.7945 0
18.7497 15.2389 1.11022e-16 60 -42.7696 -1.11022e-16 45 59.2786 -2.77556e-17 18.7497
57.9997 2.77556e-17 22.4999 58.1285 -6.245e-17 22.4999 54.7871 0 30 -50
0 37.5 58.7775 2.77556e-17 22.4999 57.3544 0 26.25 44.2301 -1.11022e-16
45 -35.5173 -2.22045e-16 52.5 59.2769 0 22.4998 51.283 -6.93889e-18 37.5
-20.9926 1.11022e-16 60 58.0001 0 26.25 58.1216 0 26.25 22.4878
1.11022e-16 60 36.9426 0 52.5 54.7861 -8.32667e-17 33.75 58.7756 0
26.25 57.3526 -1.66533e-16 30 59.2786 0 26.25 57.9997 -2.08167e-17 30
58.1203 2.08167e-17 30 51.28 0 41.25 58.7742 -5.55112e-17 30 -28.2547
0 60 54.7871 0 37.5 59.2769 0 30 57.3525 0
33.75 29.7295 0 60 58.0002 0 33.75 58.1205 -6.93889e-18 33.75
-50 0 45 0.736925 0 67.5 -42.7695 0 52.5 58.7752
-2.77556e-17 33.75 -6.5169 3.33067e-16 67.5 7.98998 -1.11022e-16 67.5 59.2786 2.77556e-17
33.75 51.2831 -3.46945e-17 45 57.3524 5.55112e-17 37.5 54.7862 1.38778e-17 41.25
44.2303 1.11022e-16 52.5 -13.7644 0 67.5 57.9998 0 37.5 58.1202
4.16334e-17 37.5 15.2389 -1.11022e-16 67.5 58.7741 0 37.5 -35.5171 1.11022e-16
60 59.2769 0 37.5 36.9425 0 60 57.3524 -5.55112e-17 41.25
-20.9926 -1.11022e-16 67.5 51.2801 -6.93889e-18 48.75 54.787 0 45 22.4878
2.22045e-16 67.5 58.0002 6.93889e-18 41.25 58.1204 0 41.25 58.7752 -2.77556e-17
41.25 59.2786 -2.77556e-17 41.25 -50 0 52.5 57.3524 0 45
-28.2547 1.11022e-16 67.5 54.7862 -2.77556e-17 48.75 51.2831 -6.245e-17 52.5 57.9998
6.93889e-18 45 58.1202 -6.93889e-18 45 -42.7695 -1.11022e-16 60 29.7296 0
67.5 58.7741 2.77556e-17 45 59.2769 0 45 44.2304 -2.22045e-16 60
0.737014 0 75 57.3524 0 48.75 -6.51679 -1.11022e-16 75 7.99012
-2.22045e-16 75 58.0002 -6.93889e-18 48.75 58.1204 0 48.75 54.787 -1.38778e-17
52.5 51.2801 0 56.25 -13.7644 0 75 -35.5171 -1.11022e-16 67.5
58.7752 2.77556e-17 48.75 15.239 0 75 59.2786 2.77556e-17 48.75 36.9428
2.22045e-16 67.5 57.3524 0 52.5 -20.9926 1.11022e-16 75 -50 -1.11022e-16
60 57.9998 6.93889e-18 52.5 22.4879 0 75 58.1202 -6.93889e-18 52.5
54.7862 -1.38778e-17 56.25 58.7741 2.77556e-17 52.5 51.2831 -1.38778e-17 60 59.2769
-2.77556e-17 52.5 -42.7695 0 67.5 -28.2547 1.11022e-16 75 57.3524 0
56.25 29.7296 0 75 44.2304 -1.11022e-16 67.5 58.0002 2.08167e-17 56.25
58.1204 6.93889e-18 56.25 54.7871 0 60 58.7752 2.77556e-17 56.25 59.2786
2.77556e-17 56.25 51.2801 0 63.75 0.737004 -1.11022e-16 82.5 -6.51683 0
82.5 7.99007 1.11022e-16 82.5 -35.5171 0 75 57.3524 0 60
57.9998 1.38778e-17 60 58.1202 4.85723e-17 60 36.9426 1.11022e-16 75 -13.7644
1.11022e-16 82.5 15.239 -2.22045e-16 82.5 58.7741 2.77556e-17 60 -50 2.22045e-16
67.5 54.7862 -2.77556e-17 63.75 59.2769 -2.77556e-17 60 51.2831 -6.245e-17 67.5
-20.9926 -1.11022e-16 82.5 22.4879 1.11022e-16 82.5 57.3524 0 63.75 58.0002
6.93889e-18 63.75 58.1204 6.93889e-18 63.75 -42.7695 0 75 58.7752 -2.77556e-17
63.75 54.787 0 67.5 59.2786 2.77556e-17 63.75 44.2304 0 75
-28.2547 -1.11022e-16 82.5 29.7297 0 82.5 51.2801 0 71.25 57.3524
0 67.5 57.9998 1.38778e-17 67.5 58.1202 4.85723e-17 67.5 58.7741 2.77556e-17
67.5 -35.5171 0 82.5 59.2769 -2.77556e-17 67.5 54.7862 -6.93889e-17 71.25
0.737067 -1.11022e-16 90 -50 -1.11022e-16 75 -6.51675 -1.11022e-16 90 7.99018
1.11022e-16 90 36.9429 2.22045e-16 82.5 51.2831 1.17961e-16 75 -13.7643 0
90 15.239 -1.11022e-16 90 57.3524 0 71.25 58.0002 6.93889e-18 71.25
58.1204 6.93889e-18 71.25 58.7752 -2.77556e-17 71.25 -20.9925 1.11022e-16 90 59.2786
2.77556e-17 71.25 22.488 1.11022e-16 90 54.7871 0 75 -42.7695 0
82.5 44.2305 0 82.5 51.2801 -6.93889e-18 78.75 -28.2547 -2.22045e-16 90
57.3524 0 75 29.7297 -1.11022e-16 90 57.9998 1.38778e-17 75 58.1202
4.85723e-17 75 58.7741 2.77556e-17 75 59.2769 -2.77556e-17 75 54.7862 0
78.75 -50 0 82.5 -35.5171 1.11022e-16 90 51.2831 -1.80411e-16 82.5
36.9427 1.11022e-16 90 57.3524 0 78.75 0.737038 0 97.5 -6.5168
0 97.5 58.0002 6.93889e-18 78.75 7.9901 -1.11022e-16 97.5 58.1204 6.93889e-18
78.75 58.7752 -2.77556e-17 78.75 -13.7644 2.22045e-16 97.5 59.2786 2.77556e-17 78.75
15.239 0 97.5 54.787 -1.38778e-17 82.5 -42.7695 -1.11022e-16 90 -20.9926
-1.11022e-16 97.5 22.4879 0 97.5 44.2304 1.11022e-16 90 51.2801 0
86.25 57.3524 0 82.5 57.9998 -6.93889e-18 82.5 58.1202 4.85723e-17 82.5
58.7741 2.77556e-17 82.5 -28.2547 0 97.5 59.2769 -2.77556e-17 82.5 29.7297
1.11022e-16 97.5 54.7862 1.38778e-17 86.25 -50 0 90 57.3524 0
86.25 51.2831 -6.93889e-18 90 -35.5171 -1.11022e-16 97.5 58.0002 1.38778e-17 86.25
58.1204 6.93889e-18 86.25 36.9429 2.22045e-16 97.5 58.7752 -2.77556e-17 86.25 59.2786
2.77556e-17 86.25 0.73709 -1.11022e-16 105 -6.51673 0 105 7.9902 -1.11022e-16
105 54.7871 0 90 -13.7643 0 105 15.239 1.11022e-16 105
-42.7695 -1.11022e-16 97.5 57.3524 0 90 51.2801 0 93.75 44.2305
1.11022e-16 97.5 57.9998 1.38778e-17 90 -20.9925 2.22045e-16 105 58.1202 4.85723e-17
90 22.4881 0 105 58.7741 2.77556e-17 90 59.2769 -2.77556e-17 90
54.7862 0 93.75 -28.2547 0 105 29.7297 0 105 -50
-1.11022e-16 97.5 57.3524 0 93.75 51.2831 -1.04083e-16 97.5 58.0002 6.93889e-18
93.75 58.1204 6.93889e-18 93.75 58.7752 -2.77556e-17 93.75 -35.5171 0 105
59.2786 2.77556e-17 93.75 36.9427 -1.11022e-16 105 54.787 1.38778e-17 97.5 0.737054
-1.11022e-16 112.5 -6.51679 2.22045e-16 112.5 7.99012 -1.11022e-16 112.5 57.3524 0
97.5 -13.7644 0 112.5 -42.7695 0 105 57.9998 1.38778e-17 97.5
51.2801 -6.93889e-18 101.25 58.1202 4.85723e-17 97.5 15.239 -1.11022e-16 112.5 58.7741
2.77556e-17 97.5 44.2305 1.11022e-16 105 59.2769 -2.77556e-17 97.5 -20.9926 1.11022e-16
112.5 22.4879 -1.11022e-16 112.5 54.7862 0 101.25 -28.2547 0 112.5
-50 2.22045e-16 105 29.7297 0 112.5 57.3524 0 101.25 58.0002
1.38778e-17 101.25 58.1204 6.93889e-18 101.25 51.2831 2.08167e-17 105 58.7752 -2.77556e-17
101.25 59.2786 2.77556e-17 101.25 -35.5171 -2.22045e-16 112.5 36.9429 1.11022e-16 112.5
54.7871 0 105 57.3524 0 105 57.9998 1.38778e-17 105 0.737101
-1.11022e-16 120 58.1202 4.85723e-17 105 -6.51672 0 120 51.2801 6.93889e-18
108.75 7.99022 -1.11022e-16 120 58.7741 2.77556e-17 105 -42.7695 0 112.5
59.2769 -2.77556e-17 105 -13.7643 -1.11022e-16 120 44.2305 0 112.5 15.239
-1.11022e-16 120 54.7862 -2.77556e-17 108.75 -20.9925 0 120 22.4881 0
120 57.3524 0 108.75 -50 0 112.5 58.0002 6.93889e-18 108.75
[...]
POINT_DATA 3098
FIELD attributes 2
p 1 3098 float
0.056171 0.0431015 0.473343 0.0673188 0.473347 0.444096 0.0135599 0.269544 0.0933672 0.490744 0.265998
0.466298 0.290307 0.28269 -0.0256902 0.302052 0.501674 0.142002 0.0809068 0.0710697 0.523363
0.0859912 0.293423 0.0582535 0.317421 0.092051 -0.0479829 0.491407 0.282717 0.0409978 0.628087
0.0392943 0.0554275 0.0375922 0.0867667 0.296542 0.0334737 0.415529 0.0356549 -0.0474926 0.0612119
0.452875 0.0335366 0.406232 0.0296459 0.0298789 0.0304003 0.655014 0.0321171 0.0258453 0.283152
0.594231 0.0320342 0.0204285 0.0380227 0.0709777 -0.00574298 -0.00849367 0.0346018 -0.0205522 0.370668
0.013826 0.851985 0.220267 0.569006 0.0218286 0.258251 0.0239835 0.0170139 0.0465243 0.687099
0.0386816 0.0247405 0.0106761 -0.0377788 -0.00129231 1.17444 0.195995 0.0882636 0.378032 -0.0735551
0.0272536 0.0213776 0.00176569 0.320844 1.27773 0.0457252 0.0395636 0.24674 0.857654 0.0592686
0.0215992 -0.0147736 1.7786 0.0244111 0.0166649 0.0310827 -0.0637216 0.694609 -0.0113418 0.0257673
-0.131625 -0.133757 0.0112285 -0.130541 0.0997242 1.02193 -0.18574 -0.436111 0.965384 -0.227065
2.09864 0.0278683 1.03949 -0.28538 0.0552029 0.788165 -1.03076 0.00313044 0.0382203 0.300366
-0.175144 0.812234 -0.0726241 -0.0255632 -0.0238225 0.0663553 1.71289 -0.386755 2.07544 -0.128595
-1.41636 -0.143451 2.18836 -1.47423 -0.23243 2.19397 -0.167143 2.35552 -1.03509 1.84531
-1.56024 -0.107207 0.861828 0.0312494 1.35392 2.02871 0.745515 0.024551 0.623928 -0.00801482
2.12806 0.0276024 -0.0112179 0.0202642 0.810869 -0.163585 0.0016188 0.00279311 0.799397 -0.0580669
0.0297011 -0.2018 -0.0068056 0.0164558 0.0476316 -0.0192624 -0.190408 -0.18591 -0.106186 0.0596165
-0.1804 -0.14642 -0.0331538 0.0376873 -0.177039 -0.0498593 0.0318028 -0.140237 -0.137017 0.0110302
-0.0189179 -0.0615769 -0.128097 -0.101818 -0.121774 -0.102363 -0.100716 -0.0551382 -0.0951926 0.0349124
-0.0486126 -0.0902722 -0.0648014 0.00484475 -0.0725407 -0.0731473 0.0516878 0.0276231 0.0461678 -0.075475
0.0305687 0.0242054 -0.0748906 -0.0536088 -0.0486921 -0.0509133 -0.0251309 0.0330394 -0.0559611 -0.0571422
0.022052 -0.0623894 0.0406993 -0.0638676 -0.000854472 -0.048002 0.0352457 -0.0483234 -0.0481702 0.0192886
-0.0538646 -0.0550086 -0.061169 -0.0635641 0.0499356 -0.0425037 0.0383604 -0.0399519 -0.0334133 -0.0471423
-0.0482709 0.048208 0.0177854 -0.0549605 -0.0580165 -0.00228511 0.0301825 -0.0337284 0.0329833 0.0274263
-0.037557 -0.0385957 -0.0246542 -0.0174857 0.0355818 0.0438303 -0.0450863 0.0264219 -0.0484259 0.0178886
-0.0173383 0.0377797 0.0515773 -0.0200762 0.0253817 -0.0209323 -0.00621805 -0.0265142 -9.94465e-05 -0.0294556
0.0507395 0.0409136 0.00146098 0.0266958 0.0211374 -0.000843271 -0.00162186 0.0115234 -0.00628222 -0.00876341
0.0152008 0.0327755 0.0353346 0.0305511 0.0462446 0.0191451 0.016863 0.0160648 0.0307579 0.0378945
0.0303304 0.0118801 0.053843 0.0273384 0.00944601 0.0279278 0.0399981 0.0304001 0.0343499 0.0317493
0.0308937 0.0527796 0.0272223 0.0403367 0.0250075 0.0371459 0.0430757 0.0330435 0.0378301 0.0471802
0.0445734 0.0436836 0.0404798 0.0483186 0.0383934 0.0502276 0.0360097 0.0557166 0.0384607 0.0340376
0.0392656 0.0453016 0.040888 0.0342831 0.0563398 0.053232 0.0522711 0.0494732 0.0427999 0.0476182
0.0349868 0.0577182 0.0545971 0.0473741 0.0508519 0.0457299 0.0635094 0.038259 0.0601549 0.0591203
0.0565023 0.0546601 0.0631669 0.0573895 0.0507292 0.0554999 0.0453628 0.0683265 0.0397249 0.0420018
0.0645786 0.0379735 0.063502 0.0612222 0.0442973 0.0595905 0.0384424 0.0676866 0.0566543 0.0460159
0.0394105 0.0541593 0.0587138 0.072609 0.0687004 0.0675704 0.0654023 0.0487626 0.0637838 0.0427492
0.0709759 0.0592852 0.0755117 0.0618685 0.0534827 0.0713383 0.0701964 0.0499987 0.0683473 0.0669472
0.0433436 0.0454991 0.0418016 0.0738084 0.0477254 0.0424967 0.0590981 0.0781107 0.0640476 0.059183
0.0738161 0.0492923 0.072631 0.0436466 0.0708334 0.069418 0.0760274 0.0518749 0.0470086 0.0616176
0.0799444 0.0666733 0.0754283 0.0742406 0.0726892 0.0563678 0.0714374 0.0539902 0.0783976 0.0467958
0.048774 0.0454939 0.082244 0.0509818 0.0617451 0.0776931 0.068684 0.0764728 0.0462981 0.0749209
0.0632491 0.0736318 0.0524655 0.0475376 0.0806501 0.054917 0.064184 0.0510942 0.0842704 0.0796059
0.0783968 0.0712375 0.0770569 0.0759163 0.0592489 0.0578618 0.0829862 0.086596 0.0819607 0.0501556
0.0807225 0.05199 0.0732109 0.0489055 0.0793197 0.0644621 0.078099 0.0540848 0.0669451 0.0496936
0.0851276 0.055449 0.050986 0.0885035 0.0668628 0.0837849 0.0577971 0.0825655 0.08135 0.0547198
0.075762 0.0802645 0.0874952 0.0619937 0.0615411 0.0908911 0.0862449 0.0850084 0.0837419 0.077586
0.0825918 0.0670811 0.0532039 0.0548981 0.0519906 0.0705988 0.0568397 0.052809 0.0895974 0.0581476
0.0541743 0.092974 0.0883627 0.0871628 0.06946 0.086093 0.0850807 0.0795518 0.0604722 0.0579475
0.0912499 0.0645695 0.0648275 0.0946746 0.0901441 0.0889354 0.0878186 0.0867425 0.0808903 0.0695648
0.0739749 0.0559627 0.0575396 0.0548396 0.0926769 0.0594592 0.0557144 0.0960247 0.0607651 0.0914977
0.0903255 0.0571299 0.0719312 0.0893915 0.0884435 0.0826918 0.0630171 0.0609215 0.0943241 0.0669738
0.0978858 0.0677578 0.0935059 0.0923257 0.0913075 0.0902765 0.084057 0.0718677 0.0769075 0.0958839
0.0585949 0.0601491 0.057474 0.0619974 0.0994454 0.0584048 0.0951388 0.0940145 0.093234 0.0742272
0.0923731 0.0631521 0.0598738 0.0858627 0.0652623 0.0637434 0.0975256 0.101264 0.0691604 0.0970975
0.0959656 0.0707167 0.0950829 0.0941226 -0.0731495 -0.144849 0.0871936 -0.0395609 0.0290885 -0.0655212
0.0163823 -0.125637 0.0740281 -0.0392112 0.0275113 0.000748939 0.0990757 0.0798484 0.0193882 -0.0314116
-0.0556887 -0.0995296 -0.0552412 -0.0981997 -0.0389598 0.00195012 -0.0389436 0.061027 0.0248395 0.0247531
0.102774 0.0624726 -0.0564631 0.0599744 -0.0257413 0.0230214 0.0986408 0.0231486 0.0975477 0.0642174
0.096844 0.0609538 0.00276804 0.00279172 -0.072387 0.096009 -0.0491496 0.0763912 -0.0435008 -0.0691872
-0.0187971 -0.0186275 -0.0303459 0.0890229 0.0652751 -0.0651293 0.0177707 -0.0823655 0.0624637 -0.0397925
-0.0395627 0.0212758 0.00650112 -0.0752967 -0.0364039 -0.0496756 -0.0893448 -0.0558186 -0.0555891 0.0673342
-0.0254269 0.100699 0.010411 -0.00975983 0.0663399 0.0177305 -0.0822588 -0.0662754 -0.0660535 -0.0921687
-0.0271908 0.104523 0.00820324 0.100495 0.099392 -0.0046562 0.0985673 0.0712094 -0.0414103 -0.0852355
-0.0732452 -0.0730245 0.0976344 -0.0288607 -0.036201 0.0733429 -0.0186658 -0.0916417 -0.0198916 0.00852268
-0.0511312 0.0903224 0.0167915 -0.0764385 -0.0762236 -0.0850269 -0.032696 0.0107594 -0.0895673 -0.0576515
0.000363768 0.0760581 -0.0420055 0.102251 -0.0766645 -0.0764609 0.0825786 -0.0832071 -0.01255 -0.0609348
-0.0204141 -0.0214868 -0.0870116 -0.0111955 -0.0480032 0.106149 0.00659266 -0.0239243 0.102217 -0.0751838
0.101164 -0.0749886 0.0155764 0.0632712 0.100536 -0.0808331 0.064671 0.0622773 -0.0617709 0.0997415
0.013397 -0.0514809 -0.0323264 0.066402 0.078426 -0.0844139 0.0632842 0.0058356 0.0919716 -0.0730527
-0.0728634 -0.0380703 0.0673985 -0.0783709 -0.060891 -0.00446316 -0.0525593 0.0648382 -0.0820721 -0.0140702
0.103695 -0.041354 -0.0707714 -0.0705868 0.069393 -0.0522465 -0.0592915 -0.0161133 -0.0761231 0.0687788
-0.0146451 -0.0215669 -0.00871725 0.107699 0.00108349 -0.0428154 0.103843 0.102776 0.00792325 -0.079878
0.102041 -0.0268587 -0.0686498 -0.0684684 -0.0508842 0.10115 0.00841067 -0.0574437 0.0732022 -0.0739896
0.0758408 0.00445222 -0.0427408 0.0931776 -0.0300875 -0.00238519 -0.0494639 -0.0776963 -0.0665964 -0.066417
-0.0556548 -0.0418756 -0.00938883 -0.0318054 0.0779979 0.105123 -0.0718525 0.0851428 -0.0153554 -0.0477925
-0.0111285 -0.00963548 -0.00594327 0.10912 -0.0758254 -0.0538569 -0.064514 -0.0643359 -0.0321515 -0.040646
-7.11268e-05 0.105272 0.104236 0.00485691 -0.0199215 0.103636 0.102847 -0.0700042 0.00639967 0.0653476
0.0666944 0.064389 0.080354 -0.0462949 -0.031704 0.00469509 -0.0230485 0.0684006 -0.039336 -0.0519735
0.0947897 0.0654123 -0.0626919 -0.0625144 -0.0745184 0.000170168 0.0693436 -0.0249754 -0.0686998 0.0670197
-0.0308258 -0.00487791 -0.0444439 0.106697 -0.0379373 -0.0503028 -0.00955401 -0.0613906 -0.0612133 0.0712729
-0.0734645 -0.0258092 -0.014511 -0.0135984 0.110915 0.0710319 -0.0113905 0.107182 -0.0298012 0.106129
-0.00791391 0.1054 -0.0135039 -0.067649 -0.00459269 0.104503 -0.0429855 -0.0363817 -0.00302375 -0.025944
0.0750237 -0.0490859 -0.0165023 -0.00377425 -0.0603447 0.0781266 -0.0601677 0.0959783 -0.0286431 -0.0723911
-0.00693788 -0.0255991 -0.04173 -0.0185025 -0.0665814 -0.0349755 -0.0106234 0.108161 0.0797938 -0.0480923
-0.027303 0.0874528 -0.0592814 -0.0591044 -0.0142868 -0.0196428 -0.0250043 0.112422 -0.00724684 -0.0714297
-0.00708319 -0.00599064 0.108729 0.107717 -0.00408553 -0.0339059 -0.0408777 0.107157 -0.0175374 0.106387
-0.00178871 -0.0656236 -0.0201489 -0.000631583 -0.0260622 -0.0470765 0.0821508 -0.0241877 0.0672742 -0.0201257
0.0685471 -0.00101854 0.0663497 -0.0583258 -0.058149 0.0973396 0.0702254 -0.0707597 -0.00311074 0.0674023
-0.0330125 -0.0201683 -0.0397947 -0.0219346 -0.0649532 0.0711637 -0.00574346 -0.0250932 0.109427 -0.0231774
0.069049 -0.0461647 -0.00852851 -0.0230697 -0.0198572 -0.0576559 -0.0574792 0.113854 -0.00784622 0.0730549
-0.00828634 0.110234 0.109196 -0.00804392 -0.0320849 0.0730961 -0.0701421 -0.00724439 0.108471 -0.0390118
-0.0110563 0.107562 -0.0221731 -0.00546579 -0.0242671 -0.0236348 -0.0643366 -0.00447622 -0.0192753 -0.0455242
-0.0131849 0.0767236 -0.00451794 0.0981847 0.080185 -0.0570406 -0.0568641 -0.0237941 -0.00570534 -0.0312638
-0.0213432 -0.0147643 -0.0382944 -0.0693228 -0.0234049 -0.0184952 -0.007573 0.110493 0.0814636 -0.0635298
-0.0449229 -0.0236405 -0.0158233 -0.00969132 0.089472 0.114971 -0.00597107 -0.00694738 0.11139 0.11039
-0.00739954 -0.0205991 -0.0562473 -0.0560711 -0.0306679 0.109826 -0.0176779 -0.00714725 -0.0116163 0.109035
-0.0226401 -0.0378049 -0.00576761 -0.0163932 -0.0684706 -0.0232186 -0.00491945 -0.013389 0.0838474 -0.00473996
-0.0626909 -0.0441578 0.0993989 0.0690624 0.070293 -0.0166739 0.0681605 -0.0169476 -0.0198302 -0.00535478
-0.0147819 0.0719312 -0.030102 -0.0226023 0.069231 -0.0554231 -0.0552471 -0.0220787 -0.00667007 -0.0369608
0.111625 0.0728309 -0.0678095 -0.0166895 0.0709014 -0.0157822 -0.00827179 0.11629 -0.0162561 -0.0620391
0.112814 -0.0191482 -0.0433792 0.111801 -0.0219407 -0.0059557 -0.00741917 0.0747063 0.111121 -0.00841663
-0.00971328 0.110232 0.0749642 -0.00833204 -0.0163812 -0.0293864 -0.0164196 -0.0215356 -0.0071199 -0.0547843
-0.0546088 -0.0363102 -0.00637944 -0.0111082 0.0783558 -0.0155534 -0.00606844 -0.0671373 0.100213 -0.0213315
-0.0167436 0.0819776 -0.0186213 -0.0123091 -0.00635775 -0.0159585 -0.0427783 -0.0613784 -0.00726424 0.112789
-0.028691 -0.020859 -0.0168788 -0.0132258 -0.0541384 -0.0539634 0.0830835 -0.0356415 -0.0207257 -0.0149358
-0.00846734 0.117542 0.0912237 -0.0154496 0.114099 0.11312 -0.0181036 -0.00915974 -0.0111343 -0.0662519
0.112591 -0.0125242 -0.00954947 -0.0138348 0.111819 -0.0167328 -0.0126132 -0.0421629 -0.0113614 -0.0605088
-0.0202104 -0.0105889 -0.0281399 -0.010619 -0.0201039 0.0854737 -0.0149652 -0.0144279 -0.0142211 -0.0101397
0.101312 -0.0532864 -0.0531118 -0.0351472 -0.0163928 0.0707499 -0.0101992 -0.0116228 -0.017496 0.0719221
0.0698642 0.0735056 -0.0653786 0.0709104 -0.0107972 0.113736 -0.0144231 -0.014451 -0.0195503 -0.0413509
-0.0124462 0.07438 -0.0596509 -0.0196923 -0.0160026 -0.0116299 -0.0275735 -0.0139283 0.0725857 0.118638
0.115282 0.114285 0.00504736 0.0026531 0.113615 -0.0143835 0.000997444 -0.0124252 -0.0524464 -0.0342672
-0.0522721 0.112722 -0.0130088 -0.0169151 0.000681248 0.0762573 0.0766756 0.00199831 -0.0139142 -0.0155972
-0.0190905 0.00295414 -0.0132601 -0.0647437 -0.0133916 0.00356009 -0.0133722 -0.0141498 -0.0405551 0.101912
-0.0191489 0.0798952 -0.0268234 -0.0590232 0.00370172 -0.0140808 0.0837006 -0.0164392 0.00334312 -0.0134344
-0.0151505 -0.0335952 -0.0136143 0.114555 -0.0518292 -0.0516553 -0.0186296 -0.0147829 -0.0138472 0.00279445
0.084621 0.119499 0.0928678 -0.0128459 0.116159 0.115196 -0.064133 0.00161174 -0.000983115 0.114678
-0.0136517 0.00221805 -0.0184423 -0.0152731 -0.00286284 -0.0399698 0.113897 -0.00346473 -0.0261004 -0.0146758
-0.0130322 -0.0584208 -0.0022102 -0.0135284 -0.015926 0.00153123 -0.00103303 -0.0181216 -0.0329409 -0.0156564
0.0870144 -0.0512381 -0.0510646 -0.000368412 -0.013493 0.102923 0.000829706 -0.0123944 -0.000109576 -0.0142602
-0.0131605 0.0722695 0.0734107 -0.0126065 0.0713885 -0.0159043 -0.0177563 -0.000291829 -0.0633429 0.115519
-0.0394053 0.000214191 0.0749758 -0.0255555 -0.0132635 0.072429 -0.0176442 -0.000635908 -0.0152891 -0.0576441
0.120661 0.0758239 0.117412 0.0741115 0.116433 -0.0159865 -0.0324913 -0.000234109 -0.00102 -0.002497
0.115788 -0.012755 -0.00649293 -0.0504757 -0.0138875 -0.0503025 -0.00710764 0.114905 -0.0119114 -0.00948292
-0.0130247 -0.0121419 0.0776898 -0.00689772 -0.00154847 0.0782074 -0.0069488 -0.0172388 -0.00063445 -0.0158912
-0.0625933 -0.0172325 -0.00496029 -0.0386713 -0.0250283 -0.014672 0.103606 -0.00213125 -0.0123838 0.0813348
-0.00599974 -0.0569046 -0.0134911 -0.0127424 0.0852308 -0.000928725 -0.0316829 -0.00471506 -0.0113344 -0.0117168
-0.0157447 0.116567 -0.00266408 -0.0497472 -0.0495742 -0.00631525 0.0860575 0.121804 -0.00105815 -0.0167268
-0.0167898 -0.012052 0.11858 0.117633 -0.00308511 -0.0123963 0.0943589 -0.0052271 0.117139 -0.0130667
-0.0243382 -0.062105 -0.014196 0.116374 -0.0379701 -0.0155814 -0.00704946 -0.0564184 -0.0113494 -0.00346666
-0.0107838 -0.00101518 -0.0310918 0.08845 -0.0120649 -0.0117033 -0.0492647 -0.0490918 -0.00614219 0.104543
-0.0153538 -0.0162692 -0.0126911 -0.00376874 -0.0160694 -0.000936841 -0.00802762 -0.0137053 0.0737133 0.117385
-0.0236905 0.0748503 0.0728175 -0.0375067 -0.0616641 -0.010938 0.0764008 0.0738386 -0.0103326 -0.0117839
-0.00392254 -0.0150576 0.122773 -0.0113274 -0.0559804 -0.00703096 0.119622 0.118655 0.0772263 -0.000839028
-0.0305532 0.118015 0.00751324 0.0755196 0.117128 0.00375139 -0.0123485 -0.0157741 -0.0488309 -0.0486583
0.00339154 -0.0039302 -0.00883516 0.0791042 -0.0154505 0.0796057 -0.0147846 -0.0131073 -0.0114968 -0.0104681
0.00494111 -0.00065585 -0.0232512 -0.0109809 -0.0370867 0.105008 -0.0610424 -0.009869 -0.00767787 0.0827443
-0.0038798 0.0866354 -0.0119679 -0.0553659 0.00534848 -0.0153614 -0.0302383 0.118094 -0.0145584 -0.000393746
-0.0111593 -0.0092525 -0.0482227 -0.0480502 0.12355 -0.0150289 -0.0100306 -0.00382136 0.0874408 -0.0106742
0.120418 0.119484 -0.0125502 0.00528595 0.118987 0.0957513 0.118208 -0.022849 -0.0093244 -0.00788492
-0.0364895 -0.0115412 -0.0604341 -0.000167406 -0.0143031 -0.0149327 -0.00367801 -0.0108377 -0.0547633 0.0898268
0.00474564 -0.0295556 0.105903 -0.010339 -0.00929795 -0.00965872 -0.0476257 -0.0474533 -0.0146285 -0.0121561
1.28811e-05 -0.0139985 0.118941 -0.00346316 -0.0111555 -0.00882372 0.0751635 -0.0222728 0.0763245 0.0742297
-0.0105708 -0.00781566 -0.0359058 0.00404278 0.0778791 0.12458 -0.0144365 0.0752003 -0.0600611 0.121535
0.120581 0.119953 -0.00995856 0.0161934 0.119067 0.015443 0.0786852 0.0131686 -0.0543887 0.076852
-0.00925612 0.000240909 -0.0290711 -0.00325195 0.0136814 0.0133235 -0.0137224 -0.00909745 0.0152252 -0.0140727
-0.0472499 -0.0470775 0.0805407 -0.011755 -0.0108092 0.0808927 -0.0102905 0.0144231 -0.00844112 0.00354602
0.106446 0.015383 -0.0217227 -0.013982 -0.00310065 -0.00960304 0.000525792 0.0841304 -0.0355367 -0.00752078
0.0145011 0.0878663 -0.0597094 -0.013498 0.119846 -0.0088039 0.0156116 -0.0540376 -0.0286193 -0.00994674
0.125577 -0.0104337 0.122546 0.121623 0.0145144 0.088804 -0.0135406 -0.00290384 -0.0112428 0.12114
-0.0468997 -0.0467275 -0.00875169 0.0116503 0.12037 0.0969263 0.0100683 0.00329672 0.000763678 0.0087827
-0.0080518 0.008355 -0.00929457 0.0152851 0.00901777 -0.0136256 -0.0132434 -0.0213625 0.00981028 -0.0351962
-0.00839702 0.0141338 0.0100505 0.0911917 -0.0591679 -0.00961756 -0.00718631 -0.00265431 0.107207 0.00999761
-0.0100189 0.000949871 -0.0283808 0.0150184 -0.0535005 0.0101188 -0.010761 -0.0131905 0.120492 -0.00895871
0.00326769 -0.0129304 -0.00757933 0.0102347 -0.0463655 -0.0461932 0.0136842 0.0764285 -0.0132581 0.0776263
0.0754515 0.126361 -0.00839936 -0.00242816 -0.0210367 0.0101441 0.123387 0.12244 0.0792246 -0.00806892
0.0763607 0.121804 -0.00934707 0.120907 -0.00291014 0.00118081 -0.00377562 0.0143672 -0.0346718 -0.00546372
0.0800126 0.00989409 -0.0055978 -0.00965757 0.0779877 -0.0586231 -0.0053013 -0.00405345 -0.012645 -0.0277704
-0.0085833 0.00981327 -0.0529598 0.0818265 -0.00679187 0.0133152 -0.00426403 -0.0104336 0.0820211 -0.0128655
-0.002267 -0.00714476 0.00345558 0.107539 -0.00377014 -0.0128216 -0.0458281 -0.0456559 0.00974365 -0.0090636
0.00147647 -0.004116 -0.00771663 0.0853992 0.0144011 -0.0205322 0.0889719 0.121055 -0.00934726 -0.00353258
0.00946977 -0.00799524 -0.0341441 -0.0124151 0.126962 -0.00206303 -0.00824748 -0.00410972 0.123992 0.123075
0.013167 -0.0582986 0.0900673 0.122579 0.121787 0.00914423 -0.0273394 0.0979806 -0.0526346 -0.0100979
0.0017265 -0.00386994 -0.00682418 -0.0123811 -0.00872361 -0.0124238 0.0139619 -0.00731279 0.00368489 -0.045503
-0.0453308 -0.00642695 0.00911835 -0.00435537 -0.0090122 -0.012158 0.0924502 -0.0200364 -0.00180419 0.108248
-0.00391707 -0.00796841 -0.0338286 0.00919647 0.0130565 0.00191753 0.121725 -0.0580138 -0.0084071 -0.00462104
-0.00762307 -0.0269439 -0.00964662 -0.00649241 -0.0523502 -0.0121213 -0.0119035 0.127815 0.00901727 0.0773565
0.0786303 0.124925 0.123989 -0.00695245 0.0763215 -0.00156743 0.0143138 -0.0118483 0.123359 -0.00447152
0.0802675 0.122462 -0.00863532 0.0771969 -0.0452199 -0.0450479 -0.00634791 -0.00806546 0.00399247 -0.0197345
0.0810566 -0.00766175 -0.00821489 0.00877944 0.0788277 0.00215261 -0.00492591 -0.00601687 0.0132336 -0.0335549
-0.00815519 -0.00742877 0.0828886 0.0828702 0.108632 -0.00140208 -0.0575533 -0.00607477 0.00887804 -0.00922113
-0.00440168 -0.0118037 -0.0115682 -0.0267708 -0.00729777 -0.00666873 -0.0116144 -0.0518918 0.086481 -0.00831398
0.122469 0.0141558 0.0898231 0.00244893 -0.00731697 -0.00720516 -0.044762 -0.0445899 -0.00501966 0.128649
0.00910191 -0.0194752 -0.0073039 0.125768 0.124862 0.124381 -0.0078921 0.0911682 0.123602 -0.0011924
0.00426789 0.0987811 0.013332 -0.0331052 -0.0113469 -0.00480119 0.00905202 -0.00569567 -0.0114171 -0.00895566
-0.00741609 -0.0571068 -0.00636089 -0.026234 -0.00563957 -0.0080431 0.00269891 -0.0113563 0.0935639 -0.0514468
-0.00701437 0.109142 -0.00514531 0.014645 -0.0443172 -0.0441451 -0.000929748 -0.00757801 0.00892678 -0.0190424
0.122893 -0.00755207 -0.0111034 -0.00450004 0.129218 -0.00682108 -0.0326645 0.126391 0.125461 0.0136172
0.00288617 0.0787901 -0.0110724 0.124829 -0.00543475 0.080156 -0.00600292 0.077618 0.123926 0.00910375
-0.00868543 0.00458034 0.00463212 -0.0077491 0.00370354 0.0818661 -0.0568799 0.078365 -0.025885 -0.0067684
-0.0109428 0.00348527 -0.000690621 -0.0050118 -0.0512179 -0.00770499 0.0826788 -0.00728774 0.0798951 0.00388273
0.0145689 -0.044087 -0.0439149 -0.0108114 0.00938432 0.0844385 -0.00521712 -0.0186257 0.083846 0.109219
0.00311281 0.00395414 -0.00469082 -0.0324399 -0.0108257 -0.00569052 0.0879153 0.123218 -0.00516396 -0.00741435
0.090746 -0.000526257 -0.00830281 -0.0077872 -0.00649664 0.0137588 0.00937771 0.00403068 0.129593 -0.0566879
-0.0105404 -0.0255781 -0.00706201 0.126768 0.125868 -0.00496443 0.125378 -0.00639455 0.124582 -0.0510232
-0.0105537 0.0924988 0.00486829 0.0995953 0.00339864 -0.0438902 -0.0437181 0.00399479 -0.0184064 0.00928225
0.0150673 -0.00426079 -0.000322665 -0.00784465 -0.00545685 -0.0105629 -0.00713601 0.0948476 -0.00480987 -0.00619052
-0.0322488 0.109781 -0.00794489 -0.00682705 -0.00483599 0.00393087 -0.0103277 -0.0103546 -0.0254835 -0.056325
0.123712 0.00947069 -0.00474008 0.0140491 0.00362877 -0.0506616 0.130252 0.127496 0.126574 -6.72068e-05
0.125948 -0.0435283 -0.0433562 0.125047 -0.0182213 0 0.08116 0.0826897 0 0.0797632