# vtk DataFile Version 2.0
sampleSurface
ASCII
DATASET POLYDATA
POINTS 3098 float
0.746192 0 -5.00894e-05 -6.50534 1.11022e-16 -4.7391e-05 0.739507 0 7.49995 7.99812 0
1.94289e-05 -6.5124 -1.11022e-16 7.49992 7.99235 -1.11022e-16 7.50019 -13.7546 0 -1.50031e-05
0.734852 -1.11022e-16 14.9998 15.2496 -1.11022e-16 6.60617e-05 -13.7602 0 7.49982 -6.51784
-1.11022e-16 14.9998 15.2414 -1.11022e-16 7.50009 7.98685 0 14.9998 -13.7648 0
14.9999 -20.9938 0 4.36099e-06 15.2348 -1.11022e-16 14.9998 -20.9936 2.22045e-16 7.49977
22.5022 0 1.49541e-05 0.735071 0 22.4998 -6.51815 -1.11022e-16 22.4999 22.4915
0 7.49989 7.98745 -1.11022e-16 22.4998 -20.9933 -1.11022e-16 14.9999 -13.7652 1.11022e-16
22.4999 22.4829 -1.11022e-16 14.9998 15.2356 0 22.4998 -28.2515 0 2.62893e-05
-28.2534 0 7.50012 29.7556 -1.11022e-16 -4.54549e-05 0.735819 1.11022e-16 29.9999 29.7426
0 7.4992 -6.51767 0 29.9999 -20.9933 -1.11022e-16 22.5 7.98856 0
29.9999 22.4839 1.11022e-16 22.4999 -28.255 0 15 -13.7649 0 30
29.7256 0 14.9997 15.237 0 29.9999 -35.5072 -1.11022e-16 5.90779e-05 -28.2551
0 22.5 -35.5123 1.11022e-16 7.50007 -20.993 1.11022e-16 30 36.9932 0
-7.53554e-05 29.7252 1.11022e-16 22.4999 22.4857 -1.11022e-16 29.9999 0.736256 -1.11022e-16 37.5
37.0663 -1.11022e-16 7.5 -6.5174 0 37.5 7.98913 1.11022e-16 37.5 -35.5169
-2.22045e-16 15 36.9578 0 14.9999 -13.7648 0 37.5 15.2378 0
37.5 -28.255 0 30 -35.5174 0 22.5 29.7273 -1.11022e-16 30
-42.7594 0 0.000106246 -20.9929 1.11022e-16 37.5 36.9398 -3.33067e-16 22.4999 -42.765
0 7.50013 22.4866 -1.11022e-16 37.5 44.3067 1.11022e-16 -0.000173064 44.3156 -5.55112e-17
3.74923 44.3638 -1.11022e-16 7.50044 0.736588 -1.11022e-16 45 -42.7692 2.22045e-16 15.0001
-6.51713 0 45 7.98959 0 45 -35.5174 0 30 44.2537
1.11022e-16 14.9995 -28.2549 0 37.5 -13.7646 -2.22045e-16 45 15.2384 1.11022e-16
45 36.9405 0 30 29.7284 0 37.5 47.8983 5.55112e-17 -0.000231375
47.9106 0 3.74943 -42.7696 1.11022e-16 22.5 48.0131 0 7.50081 44.229
-2.22045e-16 22.4999 -20.9927 -1.11022e-16 45 -50 -1.11022e-16 0.000116555 22.4873 -1.11022e-16
45 -50 -1.11022e-16 7.50012 51.4805 0 -0.000354952 -35.5173 1.11022e-16 37.5
51.6484 5.55112e-17 3.75115 -50 -2.22045e-16 15.0001 51.6711 0 7.50084 -42.7696
0 30 0.736735 -1.11022e-16 52.5 36.9419 0 37.5 51.4953 -1.11022e-16
11.2492 -6.51706 0 52.5 7.98975 0 52.5 -28.2549 0 45
44.2289 -1.11022e-16 30 51.37 -5.55112e-17 14.9994 29.729 -1.11022e-16 45 -13.7646
0 52.5 51.3052 -2.1684e-19 18.7496 51.3048 -2.60209e-18 18.8318 15.2386 -2.22045e-16
52.5 51.3708 -2.38524e-18 18.7496 -50 1.11022e-16 22.5 54.9985 0 -0.00260162
55.0346 0 1.87535 55.1369 0 3.75138 55.3085 5.55112e-17 7.50038 51.2883
-5.55112e-17 22.4998 55.0461 -5.55112e-17 11.249 -20.9927 0 52.5 56.7456 0
0.0299735 56.7783 -2.77556e-17 1.87544 -42.7696 0 37.5 54.8698 0 14.9993
56.8619 2.77556e-17 3.75216 22.4876 1.11022e-16 52.5 -35.5173 -1.11022e-16 45 54.8229
0 17.1162 51.2808 6.93889e-18 26.2499 55.7413 -6.93889e-18 14.9994 54.8037 0
18.7496 44.2298 -1.11022e-16 37.5 36.9422 -2.22045e-16 45 -50 0 30
58.4645 0 -0.244693 58.5154 0 1.88535 58.9168 0 -0.257294 58.9375
1.38778e-17 1.84572 58.8346 1.38778e-17 4.04008 59.1468 -3.46945e-18 1.82581 59.2027 0
-0.270676 59.0815 0 3.9148 54.7907 0 22.4998 59.2532 0 -0.267831
59.2573 0 1.824 58.2324 -1.38778e-17 11.2624 59.254 0 3.02719 58.004
1.38778e-17 12.6256 59.2576 -3.46945e-18 3.82483 51.283 -6.245e-17 30 57.6498 2.77556e-17
14.9995 -28.2548 1.11022e-16 52.5 59.2774 -2.77556e-17 7.62697 58.8187 2.77556e-17 11.263
58.0011 -1.38778e-17 14.9995 0.736891 0 60 58.3071 0 14.9994 29.7293
1.11022e-16 52.5 59.2786 -2.77556e-17 11.2636 -6.5169 0 60 57.4289 2.77556e-17
18.7498 7.98997 -1.11022e-16 60 58.8533 5.55112e-17 14.9994 54.7868 1.249e-16 26.2499
58.0003 -1.38778e-17 18.7498 58.1668 0 18.7498 59.2769 -2.77556e-17 14.9994 51.2799
6.93889e-18 33.75 -13.7644 0 60 57.3667 0 22.4999 58.7945 0
18.7497 15.2389 1.11022e-16 60 -42.7696 -1.11022e-16 45 59.2786 -2.77556e-17 18.7497
57.9997 2.77556e-17 22.4999 58.1285 -6.245e-17 22.4999 54.7871 0 30 -50
0 37.5 58.7775 2.77556e-17 22.4999 57.3544 0 26.25 44.2301 -1.11022e-16
45 -35.5173 -2.22045e-16 52.5 59.2769 0 22.4998 51.283 -6.93889e-18 37.5
-20.9926 1.11022e-16 60 58.0001 0 26.25 58.1216 0 26.25 22.4878
1.11022e-16 60 36.9426 0 52.5 54.7861 -8.32667e-17 33.75 58.7756 0
26.25 57.3526 -1.66533e-16 30 59.2786 0 26.25 57.9997 -2.08167e-17 30
58.1203 2.08167e-17 30 51.28 0 41.25 58.7742 -5.55112e-17 30 -28.2547
0 60 54.7871 0 37.5 59.2769 0 30 57.3525 0
33.75 29.7295 0 60 58.0002 0 33.75 58.1205 -6.93889e-18 33.75
-50 0 45 0.736925 0 67.5 -42.7695 0 52.5 58.7752
-2.77556e-17 33.75 -6.5169 3.33067e-16 67.5 7.98998 -1.11022e-16 67.5 59.2786 2.77556e-17
33.75 51.2831 -3.46945e-17 45 57.3524 5.55112e-17 37.5 54.7862 1.38778e-17 41.25
44.2303 1.11022e-16 52.5 -13.7644 0 67.5 57.9998 0 37.5 58.1202
4.16334e-17 37.5 15.2389 -1.11022e-16 67.5 58.7741 0 37.5 -35.5171 1.11022e-16
60 59.2769 0 37.5 36.9425 0 60 57.3524 -5.55112e-17 41.25
-20.9926 -1.11022e-16 67.5 51.2801 -6.93889e-18 48.75 54.787 0 45 22.4878
2.22045e-16 67.5 58.0002 6.93889e-18 41.25 58.1204 0 41.25 58.7752 -2.77556e-17
41.25 59.2786 -2.77556e-17 41.25 -50 0 52.5 57.3524 0 45
-28.2547 1.11022e-16 67.5 54.7862 -2.77556e-17 48.75 51.2831 -6.245e-17 52.5 57.9998
6.93889e-18 45 58.1202 -6.93889e-18 45 -42.7695 -1.11022e-16 60 29.7296 0
67.5 58.7741 2.77556e-17 45 59.2769 0 45 44.2304 -2.22045e-16 60
0.737014 0 75 57.3524 0 48.75 -6.51679 -1.11022e-16 75 7.99012
-2.22045e-16 75 58.0002 -6.93889e-18 48.75 58.1204 0 48.75 54.787 -1.38778e-17
52.5 51.2801 0 56.25 -13.7644 0 75 -35.5171 -1.11022e-16 67.5
58.7752 2.77556e-17 48.75 15.239 0 75 59.2786 2.77556e-17 48.75 36.9428
2.22045e-16 67.5 57.3524 0 52.5 -20.9926 1.11022e-16 75 -50 -1.11022e-16
60 57.9998 6.93889e-18 52.5 22.4879 0 75 58.1202 -6.93889e-18 52.5
54.7862 -1.38778e-17 56.25 58.7741 2.77556e-17 52.5 51.2831 -1.38778e-17 60 59.2769
-2.77556e-17 52.5 -42.7695 0 67.5 -28.2547 1.11022e-16 75 57.3524 0
56.25 29.7296 0 75 44.2304 -1.11022e-16 67.5 58.0002 2.08167e-17 56.25
58.1204 6.93889e-18 56.25 54.7871 0 60 58.7752 2.77556e-17 56.25 59.2786
2.77556e-17 56.25 51.2801 0 63.75 0.737004 -1.11022e-16 82.5 -6.51683 0
82.5 7.99007 1.11022e-16 82.5 -35.5171 0 75 57.3524 0 60
57.9998 1.38778e-17 60 58.1202 4.85723e-17 60 36.9426 1.11022e-16 75 -13.7644
1.11022e-16 82.5 15.239 -2.22045e-16 82.5 58.7741 2.77556e-17 60 -50 2.22045e-16
67.5 54.7862 -2.77556e-17 63.75 59.2769 -2.77556e-17 60 51.2831 -6.245e-17 67.5
-20.9926 -1.11022e-16 82.5 22.4879 1.11022e-16 82.5 57.3524 0 63.75 58.0002
6.93889e-18 63.75 58.1204 6.93889e-18 63.75 -42.7695 0 75 58.7752 -2.77556e-17
63.75 54.787 0 67.5 59.2786 2.77556e-17 63.75 44.2304 0 75
-28.2547 -1.11022e-16 82.5 29.7297 0 82.5 51.2801 0 71.25 57.3524
0 67.5 57.9998 1.38778e-17 67.5 58.1202 4.85723e-17 67.5 58.7741 2.77556e-17
67.5 -35.5171 0 82.5 59.2769 -2.77556e-17 67.5 54.7862 -6.93889e-17 71.25
0.737067 -1.11022e-16 90 -50 -1.11022e-16 75 -6.51675 -1.11022e-16 90 7.99018
1.11022e-16 90 36.9429 2.22045e-16 82.5 51.2831 1.17961e-16 75 -13.7643 0
90 15.239 -1.11022e-16 90 57.3524 0 71.25 58.0002 6.93889e-18 71.25
58.1204 6.93889e-18 71.25 58.7752 -2.77556e-17 71.25 -20.9925 1.11022e-16 90 59.2786
2.77556e-17 71.25 22.488 1.11022e-16 90 54.7871 0 75 -42.7695 0
82.5 44.2305 0 82.5 51.2801 -6.93889e-18 78.75 -28.2547 -2.22045e-16 90
57.3524 0 75 29.7297 -1.11022e-16 90 57.9998 1.38778e-17 75 58.1202
4.85723e-17 75 58.7741 2.77556e-17 75 59.2769 -2.77556e-17 75 54.7862 0
78.75 -50 0 82.5 -35.5171 1.11022e-16 90 51.2831 -1.80411e-16 82.5
36.9427 1.11022e-16 90 57.3524 0 78.75 0.737038 0 97.5 -6.5168
0 97.5 58.0002 6.93889e-18 78.75 7.9901 -1.11022e-16 97.5 58.1204 6.93889e-18
78.75 58.7752 -2.77556e-17 78.75 -13.7644 2.22045e-16 97.5 59.2786 2.77556e-17 78.75
15.239 0 97.5 54.787 -1.38778e-17 82.5 -42.7695 -1.11022e-16 90 -20.9926
-1.11022e-16 97.5 22.4879 0 97.5 44.2304 1.11022e-16 90 51.2801 0
86.25 57.3524 0 82.5 57.9998 -6.93889e-18 82.5 58.1202 4.85723e-17 82.5
58.7741 2.77556e-17 82.5 -28.2547 0 97.5 59.2769 -2.77556e-17 82.5 29.7297
1.11022e-16 97.5 54.7862 1.38778e-17 86.25 -50 0 90 57.3524 0
86.25 51.2831 -6.93889e-18 90 -35.5171 -1.11022e-16 97.5 58.0002 1.38778e-17 86.25
58.1204 6.93889e-18 86.25 36.9429 2.22045e-16 97.5 58.7752 -2.77556e-17 86.25 59.2786
2.77556e-17 86.25 0.73709 -1.11022e-16 105 -6.51673 0 105 7.9902 -1.11022e-16
105 54.7871 0 90 -13.7643 0 105 15.239 1.11022e-16 105
-42.7695 -1.11022e-16 97.5 57.3524 0 90 51.2801 0 93.75 44.2305
1.11022e-16 97.5 57.9998 1.38778e-17 90 -20.9925 2.22045e-16 105 58.1202 4.85723e-17
90 22.4881 0 105 58.7741 2.77556e-17 90 59.2769 -2.77556e-17 90
54.7862 0 93.75 -28.2547 0 105 29.7297 0 105 -50
-1.11022e-16 97.5 57.3524 0 93.75 51.2831 -1.04083e-16 97.5 58.0002 6.93889e-18
93.75 58.1204 6.93889e-18 93.75 58.7752 -2.77556e-17 93.75 -35.5171 0 105
59.2786 2.77556e-17 93.75 36.9427 -1.11022e-16 105 54.787 1.38778e-17 97.5 0.737054
-1.11022e-16 112.5 -6.51679 2.22045e-16 112.5 7.99012 -1.11022e-16 112.5 57.3524 0
97.5 -13.7644 0 112.5 -42.7695 0 105 57.9998 1.38778e-17 97.5
51.2801 -6.93889e-18 101.25 58.1202 4.85723e-17 97.5 15.239 -1.11022e-16 112.5 58.7741
2.77556e-17 97.5 44.2305 1.11022e-16 105 59.2769 -2.77556e-17 97.5 -20.9926 1.11022e-16
112.5 22.4879 -1.11022e-16 112.5 54.7862 0 101.25 -28.2547 0 112.5
-50 2.22045e-16 105 29.7297 0 112.5 57.3524 0 101.25 58.0002
1.38778e-17 101.25 58.1204 6.93889e-18 101.25 51.2831 2.08167e-17 105 58.7752 -2.77556e-17
101.25 59.2786 2.77556e-17 101.25 -35.5171 -2.22045e-16 112.5 36.9429 1.11022e-16 112.5
54.7871 0 105 57.3524 0 105 57.9998 1.38778e-17 105 0.737101
-1.11022e-16 120 58.1202 4.85723e-17 105 -6.51672 0 120 51.2801 6.93889e-18
108.75 7.99022 -1.11022e-16 120 58.7741 2.77556e-17 105 -42.7695 0 112.5
59.2769 -2.77556e-17 105 -13.7643 -1.11022e-16 120 44.2305 0 112.5 15.239
-1.11022e-16 120 54.7862 -2.77556e-17 108.75 -20.9925 0 120 22.4881 0
120 57.3524 0 108.75 -50 0 112.5 58.0002 6.93889e-18 108.75
[...]
POINT_DATA 3098
FIELD attributes 2
p 1 3098 float
-0.000213481 -0.00344335 0.0437642 0.000804336 0.0428474 0.0384482 -0.00472534 0.0182664 0.00506822 0.043899 0.0173859
0.0420108 0.0213951 0.0189505 -0.00897948 0.0224866 0.0453235 0.0120354 6.22286e-05 -0.00115628 0.0493305
0.000730464 0.0204429 -0.00333184 0.0239213 0.00106528 -0.012057 0.0445365 0.0297146 -0.00331403 0.0632078
-0.00361965 -0.00392114 -0.00371269 -0.00010104 0.0214112 -0.00489806 0.0352187 -0.0044075 -0.0144513 -0.00362192
0.0427116 -0.00542267 0.0433466 -0.00777691 -0.00568864 -0.00498581 0.0655402 -0.00505989 -0.00540058 0.0207606
0.054688 -0.00569495 -0.00637884 -0.00566789 -0.00376503 -0.0108024 -0.0142663 -0.0060642 -0.0147271 0.0398795
-0.00764109 0.0991782 0.0258845 0.0599568 -0.00656977 0.021024 -0.00661902 -0.00694214 -0.00589598 0.0643905
-0.00635565 -0.00711465 -0.00786257 -0.0156319 -0.0103652 0.137704 0.0189228 -0.00404997 0.0353763 -0.0225475
-0.00748464 -0.0131002 -0.00919151 0.0388333 0.147662 -0.00642912 -0.00376678 0.0217425 0.0909333 -0.00693126
-0.0070046 -0.0131851 0.197044 -0.0069937 -0.00733081 -0.00772997 -0.0205448 0.0651269 -0.0115277 -0.00734064
-0.0316509 -0.0318686 -0.00803718 -0.0315712 -0.00457372 0.11241 -0.0387927 -0.0703582 0.101649 -0.0414022
0.235482 -0.00762352 0.111649 -0.0528024 -0.0067664 0.0732241 -0.146937 -0.00912829 -0.00772776 0.0162636
-0.0344196 0.0755334 -0.0272795 -0.016163 -0.0140334 -0.00828474 0.196444 -0.063104 0.246025 -0.0295494
-0.192243 -0.031036 0.261817 -0.197905 -0.043861 0.262411 -0.034056 0.267975 -0.14252 0.203756
-0.208312 -0.0265411 0.0802908 -0.00779722 0.147978 0.227903 0.0671095 -0.0067563 0.0534156 -0.0110341
0.24133 -0.00668704 -0.0212631 -0.00699678 0.0762605 -0.0345909 -0.0189945 -0.0184765 0.0755134 -0.0210943
-0.00687129 -0.0413972 -0.0191175 -0.00745173 -0.00773534 -0.0202455 -0.039685 -0.0389855 -0.0276297 -0.00746916
-0.0380304 -0.0334857 -0.0166074 -0.00776595 -0.0373697 -0.0202382 -0.00702841 -0.0325127 -0.0320522 -0.00816007
-0.0131159 -0.0228309 -0.0309766 -0.0278273 -0.0301465 -0.02761 -0.0273457 -0.0206043 -0.0267284 -0.00711411
-0.0214623 -0.026081 -0.0238788 -0.00938293 -0.0244837 -0.0244643 -0.00805068 -0.00620697 -0.00783662 -0.0246732
-0.00610148 -0.0063574 -0.0244531 -0.0200521 -0.0220563 -0.0215413 -0.0151227 -0.00616767 -0.0225394 -0.022557
-0.00660539 -0.0230176 -0.00703221 -0.0229717 -0.010733 -0.0217376 -0.00621687 -0.0190923 -0.0208413 -0.00698941
-0.021996 -0.0219974 -0.0225503 -0.022612 -0.00815064 -0.0207368 -0.00621093 -0.0194838 -0.0171913 -0.0208582
-0.0208451 -0.00713236 -0.00763999 -0.0213953 -0.0214782 -0.0120428 -0.00554005 -0.0192403 -0.00541481 -0.00564051
-0.01926 -0.0192445 -0.0174456 -0.0150969 -0.00540322 -0.00606282 -0.0198255 -0.00577069 -0.0199753 -0.00831829
-0.0170077 -0.00536751 -0.00744843 -0.0168846 -0.00596909 -0.0168439 -0.0151113 -0.017297 -0.0128958 -0.0173971
-0.00612367 -0.00528861 -0.0146621 -0.00630161 -0.00907091 -0.0145185 -0.0144765 -0.0128681 -0.0148427 -0.0149043
-0.0110539 -0.0048102 -0.00467533 -0.00487091 -0.00509634 -0.0124647 -0.0123428 -0.0123115 -0.00654651 -0.00460145
-0.0049407 -0.0126471 -0.00639869 -0.0110108 -0.0127223 -0.00966377 -0.00448777 -0.00505013 -0.0106749 -0.0105803
-0.0105648 -0.00510438 -0.0108878 -0.00959342 -0.0109807 -0.00703436 -0.00434645 -0.00524668 -0.00853282 -0.00926645
-0.00916643 -0.00915055 -0.00941097 -0.00410862 -0.0094845 -0.00849335 -0.00410247 -0.00531986 -0.00393284 -0.00418718
-0.00530758 -0.0075795 -0.00380826 -0.00427352 -0.00825378 -0.0081965 -0.00819212 -0.00842642 -0.0036516 -0.00849758
-0.00437395 -0.00755744 -0.004077 -0.00565211 -0.0069229 -0.0034694 -0.0073759 -0.00453243 -0.00734277 -0.00734214
-0.00753385 -0.00759201 -0.00693866 -0.00425924 -0.00319618 -0.00641638 -0.00452896 -0.00684413 -0.00350489 -0.00330094
-0.0068649 -0.00365775 -0.00687456 -0.00704873 -0.00314809 -0.00710068 -0.0037952 -0.00649524 -0.00313743 -0.00295263
-0.00390946 -0.00487547 -0.00604455 -0.00645088 -0.00649784 -0.00651131 -0.00665665 -0.00272218 -0.00669891 -0.00406719
-0.00615945 -0.00330165 -0.00620334 -0.00574182 -0.00241746 -0.00630148 -0.00632393 -0.00410166 -0.00646201 -0.00650491
-0.00304202 -0.00284352 -0.00319725 -0.00591605 -0.0026819 -0.00331371 -0.00233832 -0.00600006 -0.00565171 -0.00442818
-0.0061088 -0.00246307 -0.00613192 -0.00340567 -0.00624262 -0.00627501 -0.00581937 -0.0022126 -0.00354857 -0.00248887
-0.00593619 -0.00547495 -0.00605586 -0.00607958 -0.00616501 -0.00190342 -0.00618219 -0.00360258 -0.00570751 -0.00255506
-0.00237044 -0.00267751 -0.00582681 -0.00220346 -0.00181347 -0.00594453 -0.00528341 -0.00596535 -0.00275969 -0.00602128
-0.00397131 -0.00602184 -0.00200323 -0.002837 -0.00549437 -0.00179034 -0.0019426 -0.0029662 -0.00565863 -0.00578981
-0.0058118 -0.00489284 -0.00585614 -0.00585291 -0.00150745 -0.00308787 -0.00516535 -0.00536075 -0.00549766 -0.00203292
-0.00552012 -0.00186541 -0.00468735 -0.00213681 -0.0055546 -0.00142147 -0.00554913 -0.00169922 -0.00342997 -0.00221218
-0.00492933 -0.00151072 -0.00228792 -0.00514717 -0.00153583 -0.0052878 -0.00131233 -0.00531199 -0.00534124 -0.00241018
-0.00439766 -0.00533443 -0.00469736 -0.00103034 -0.00255773 -0.00491335 -0.00504468 -0.0050669 -0.00508027 -0.00414128
-0.00506583 -0.000944637 -0.00153171 -0.00137177 -0.00162691 -0.00292399 -0.00121264 -0.00169491 -0.00441108 -0.00102586
-0.00176967 -0.00465511 -0.00479258 -0.00481564 -0.00105581 -0.00482634 -0.00481272 -0.00378087 -0.000823942 -0.00188132
-0.00410259 -0.000542777 -0.00206345 -0.00436099 -0.00450049 -0.00452421 -0.0045342 -0.0045239 -0.00359337 -0.000442484
-0.00242386 -0.0010514 -0.000893909 -0.00114353 -0.00389119 -0.000736595 -0.00120949 -0.0041585 -0.00055007 -0.00428849
-0.00431001 -0.00129111 -0.000534675 -0.00430985 -0.00429453 -0.00334536 -0.00034549 -0.00140324 -0.00371877 -7.16283e-05
-0.00399447 -0.00158858 -0.00411873 -0.00413744 -0.00412117 -0.00409724 -0.00311618 3.68247e-05 -0.00195535 -0.00346812
-0.000594412 -0.000441726 -0.000692761 -0.000286538 -0.00376428 -0.000763998 -0.0038856 -0.00390196 -0.0038771 -3.71519e-05
-0.00384923 -0.00010069 -0.000850059 -0.00273251 0.000104453 -0.000959207 -0.00311727 -0.00342068 0.000373812 -0.00354076
-0.00355834 -0.00115881 -0.00353925 -0.00351836 0.000836339 -0.00365116 -0.00252669 0.000945126 0.00373228 0.000939521
0.00284392 -0.00292368 0.000488349 0.000668367 0.00334628 0.00200481 -0.00287421 -0.0015097 0.00265254 0.000244568
0.00107829 -0.00191342 0.00108417 -0.00186098 0.000296598 0.00169792 0.000279494 -0.000178553 0.00281108 0.00279165
-0.00317545 -3.38789e-05 -0.00107603 -0.000276471 0.00020104 0.00238966 -0.00328664 0.00238308 -0.00330249 0.000121673
-0.0032767 -0.000352434 0.0012592 0.00124807 -0.00192625 -0.00325174 -0.00100465 0.000428361 0.000929198 -0.00106776
0.000125794 0.000123792 4.37895e-05 -0.00229964 0.000309542 -0.00183715 0.00180922 -0.00247469 -0.000440098 -0.000911207
-0.000908865 0.00171047 0.000849701 -0.00239038 0.000793903 -0.000509953 -0.00281609 -0.0017156 -0.00171243 0.000513619
-0.000132347 -0.00269221 0.00105158 -2.33421e-05 -0.000542521 0.00118878 -0.00273348 -0.00227741 -0.00227446 -0.0028839
-0.000836304 -0.00297323 0.000600745 -0.00306578 -0.00307738 -0.000110393 -0.00303989 0.000776981 -0.00150241 -0.0028063
-0.00262401 -0.00262118 -0.00300915 0.000635648 -0.000307029 -0.000726954 -0.000170249 -0.00274472 -0.000787179 0.000637768
-0.00203529 -0.00210003 0.000851003 -0.00270335 -0.00270067 -0.00268278 -0.00135654 0.000444808 -0.00255756 -0.00238559
-0.000156538 0.00089601 -0.0018685 -0.00245858 -0.00260138 -0.00259924 -0.00109977 -0.00251467 -0.000744814 -0.00245637
0.000460726 -8.95056e-05 -0.00238439 -0.000223682 -0.00221378 -0.00274716 0.00017815 -0.00123984 -0.00283771 -0.00245879
-0.00284801 -0.00245729 0.000457531 0.000197162 -0.00280602 -0.00235395 0.000336096 0.000101198 -0.00237668 -0.00277298
0.000252677 -0.00228627 -0.00170058 0.000490454 0.000846682 -0.00218363 2.41339e-05 -0.000222067 -0.00178046 -0.00231444
-0.00231333 -0.00203699 0.000679535 -0.00215604 -0.00229076 -0.000701936 -0.00221742 -6.2535e-05 -0.00197373 -0.00110874
-0.00217346 -0.0021166 -0.00212016 -0.00211912 0.000886407 -0.00217174 -0.00219017 0.00036598 -0.00194818 -0.000160186
5.41851e-05 -0.00151708 -0.000168286 -0.00247313 -0.000109533 -0.00206297 -0.00256407 -0.00257565 3.8409e-05 -0.00182594
-0.00254101 -0.00183664 -0.00191493 -0.00191397 -0.00209873 -0.00251503 -6.05654e-05 -0.00199976 0.00114636 -0.0018064
-0.000351022 -0.000367236 -0.00202973 -0.00161242 -0.00192577 -0.000705798 -0.00191618 -0.00171639 -0.00178136 -0.00178065
-0.00179983 -0.00198474 -0.00101887 -0.001885 0.00126525 -0.00197478 -0.00169996 -0.000716051 -0.00133901 -0.00171878
0.000345612 9.06382e-05 -0.000178512 -0.00226912 -0.00156696 -0.0016963 -0.00167844 -0.00167779 -0.00187164 -0.00182373
-0.000242839 -0.00234935 -0.00235895 -0.000199944 -0.00158798 -0.00231844 -0.00228898 -0.00154757 -0.000321646 0.00053289
0.000670309 0.000436039 0.0012218 -0.00163491 -0.0018545 -0.000542193 -0.00167843 0.000824132 -0.00163607 -0.00160895
-0.00141968 0.000358699 -0.00152152 -0.00152073 -0.00139748 -0.000747708 0.00101372 -0.00166932 -0.00137624 0.00027314
-0.00171798 -0.000973634 -0.00155738 -0.00180131 -0.00155079 -0.00143632 -0.00125217 -0.00134821 -0.0013474 0.00122073
-0.00127986 -0.00167008 0.000275481 4.74228e-05 -0.0020749 0.00017788 -0.000251252 -0.00214699 -0.00154005 -0.00215556
-0.000359134 -0.0021124 -0.00145378 -0.00126197 -0.000343173 -0.00208214 -0.00137864 -0.00148621 -0.000482826 -0.0016597
0.00148226 -0.00125538 -0.00150299 -0.000701355 -0.00123898 2.80171e-06 -0.00123835 -0.00124074 -0.00145728 -0.00118856
-0.000833597 -0.00156148 -0.00119081 -0.00150089 -0.00117232 -0.00132015 -0.000950665 -0.00158702 0.00160346 -0.00116886
-0.00140464 -0.000368058 -0.00115106 -0.00115047 -0.00118256 -0.00153376 -0.00142349 -0.00186381 0.000184896 -0.00105522
-1.72441e-06 -0.000297126 -0.00193436 -0.00194223 -0.000445895 -0.00113285 -0.00111784 -0.00189743 -0.00138365 -0.00186744
-0.000455373 -0.00103548 -0.00152968 -0.000576176 -0.001252 -0.00109608 0.00156134 -0.00133845 0.000834557 -0.00139973
0.000972078 -0.000787334 0.000735535 -0.00100881 -0.00100806 -0.00096306 0.00111743 -0.000896908 -0.000908455 0.000656258
-0.00105285 -0.00142799 -0.0010545 -0.00134713 -0.000875726 0.00129596 -0.00095617 -0.001065 -0.00133861 -0.00127127
0.000568855 -0.000935765 -0.00110942 -0.0013858 -0.00131013 -0.000847538 -0.00084677 -0.00162041 0.00010944 0.00149018
-6.13642e-05 -0.0016867 -0.0016942 -0.000349032 -0.000997812 0.000475331 -0.000782014 -0.000532825 -0.00165132 -0.000886179
-0.00129372 -0.00162469 -0.00113994 -0.00058947 -0.000980689 -0.00142376 -0.000765245 -0.000701354 -0.00124948 -0.000763452
-0.00132048 0.00170542 -0.000855325 -0.000820346 0.000295718 -0.000743457 -0.000742887 -0.00132015 -0.000947147 -0.000838691
-0.000980973 -0.00123748 -0.000705207 -0.000687368 -0.000933035 -0.0011762 -0.000990228 -0.00116463 0.00178782 -0.000673224
-0.000682019 -0.00117113 -0.00124278 -0.00109747 -6.18485e-05 -0.00143548 5.71291e-05 -0.000138634 -0.00149139 -0.00149689
-0.000441304 -0.000883234 -0.000654576 -0.00065409 -0.000655019 -0.00144822 -0.00102983 -0.000607428 -0.00122094 -0.00141751
-0.000782803 -0.00063721 -0.00066902 -0.00130073 -0.00056665 -0.00112488 -0.000811987 -0.00124499 0.00174413 -0.000938603
-0.000549257 -0.000613603 -0.000688336 0.00110351 0.00124005 -0.00122871 0.00100436 -0.000880786 -0.000811014 -0.000968857
-0.00118796 0.00135907 -0.000579207 -0.00109323 0.000921915 -0.000525298 -0.000524654 -0.000595691 -0.00100033 -0.000581655
-0.00105923 0.00146683 -0.000437881 -0.00106562 0.000830668 -0.00117536 -0.00111096 -0.00131417 -0.000798825 -0.000418979
-0.00136138 -0.000677142 -0.000464405 -0.00136472 -0.000939086 -2.8025e-05 -0.000241276 0.00159696 -0.00130946 -0.000561643
-0.00119224 -0.00127476 0.000735017 -0.000692023 -0.00119549 -0.000531888 -0.000998398 -0.000514533 -0.000707635 -0.00039302
-0.00039232 -0.000423315 -0.000851752 -0.00117183 0.00173834 -0.000714854 -0.000999426 -0.00033588 -0.000566253 -0.000749165
-0.00113496 0.000566358 -0.000518947 -0.0011254 -0.000999277 -0.000987946 -0.000310776 -0.000321078 -0.000982108 -0.00090223
-0.000381916 -0.000474665 -0.00100509 -0.00113358 -0.000301409 -0.000300905 0.00178628 -0.000255299 -0.0006736 -0.000564885
-0.00108631 -0.00115389 0.000195589 -0.000859672 -0.00119992 -0.00120303 -0.000425541 -0.000142112 -0.000332044 -0.000245053
-0.0011489 -0.000642988 -0.00117542 -0.0011274 -0.00111581 -0.000926157 -0.000787496 -0.000241185 -0.000784177 -0.000232461
-0.000332462 -0.000882239 -0.000209146 -0.00112776 -0.000629034 0.0017618 -0.000651307 -0.000420661 -0.00103454 -0.00102576
-0.000346023 -0.000215731 -0.000215322 -0.000198046 -0.000881014 0.00133387 -0.0010388 -0.00104727 -0.000360414 0.00142663
0.00124397 0.00148994 -0.000134411 0.00115939 -0.000998137 -0.000706201 -0.000921551 -0.000550187 -0.000470697 -0.000180627
-0.00106402 0.0015201 -0.000118451 -0.000154387 -0.000762155 -0.00106341 -0.000143725 -0.000346224 0.00106538 -0.000961591
-0.00100575 -0.00100941 -0.000231156 -0.000398269 -0.000961127 -0.00086818 -0.000685387 -0.00114842 -9.63459e-05 -0.000152718
-9.57803e-05 -0.000934114 -0.00107721 -0.000234003 -0.000855025 0.00157376 0.000965253 -0.000878323 -0.000523286 -0.000588518
-0.000288319 -0.000951253 -0.00111061 -2.25748e-05 -0.000964472 -0.00104469 -0.000270787 -0.000801417 -4.16387e-05 -0.000241226
-8.33711e-05 0.00170969 -0.000107394 -5.50881e-06 -0.00105241 -0.00100843 0.000785621 -8.4686e-05 -0.00103302 -0.000389937
-0.000478501 -4.47263e-06 -0.00082238 -0.00056463 1.81844e-05 1.88063e-05 -0.000223388 -0.000996867 -0.000653682 -0.00107619
0.00179478 -0.000803862 0.000432077 -0.000127048 -0.000838325 -0.000841053 6.13607e-05 -0.000304829 -0.000480122 -0.000791623
-0.000780173 -0.00112081 -5.54344e-05 -0.00101573 -0.000758378 9.70888e-05 -0.000763975 -0.000909307 3.24972e-05 -0.000415672
-0.000189744 7.40239e-05 -0.00093758 -0.000499743 -4.66101e-08 -0.00108508 -0.0010241 -0.000186853 0.000149885 -0.000918827
0.001792 9.09652e-05 9.1373e-05 -0.00109208 -0.000734913 -0.000140284 -0.00100408 1.08091e-05 -0.00106472 -0.000289291
-0.000417671 0.00150842 0.00151556 -9.93163e-05 0.00145532 -0.00075784 7.68781e-05 -0.0010516 0.000114518 -0.000482582
0.00014851 -0.000973036 0.00153054 0.000193325 -0.000570734 0.00137594 -3.43938e-05 -0.00110564 5.61082e-05 0.000127368
-0.000702106 0.00157118 -0.000728955 0.00128069 -0.000730369 -0.00068812 0.000189818 -0.000953793 -0.00112452 -0.000376908
-0.000678526 -0.00033301 -0.000535403 0.000145149 -0.000120585 0.000145574 -0.000798113 -0.000650026 7.78076e-05 -0.000939317
-0.000389859 -7.95173e-05 0.00162997 -0.000962246 -0.00106316 0.00117544 -0.00104623 0.000244806 -0.000860937 -0.000652056
0.000109338 0.000140638 -0.00110555 0.000179349 0.000239098 0.000178873 -4.0338e-05 -0.000991562 -0.000174931 0.00179404
-0.00107398 0.000127573 -1.88431e-05 -0.000318462 0.00100326 -0.00072126 0.00020413 -0.00105724 0.000145551 4.80557e-05
-0.000507565 -0.000348701 -0.000969244 0.000153642 0.000154337 -0.00110899 0.00191259 -0.000561806 -0.000633837 0.000293772
0.000197819 -2.15446e-05 -0.000586095 -0.000586706 -0.0009217 -0.000253677 0.000638102 -0.00111649 -0.000533319 3.7755e-05
0.000237091 7.30158e-06 0.000330622 -0.000504219 0.000203871 -0.000309232 -0.00105304 2.16423e-05 0.000239431 -0.000802547
0.00028798 -0.000565437 0.000236005 0.00191507 -7.81155e-05 5.51933e-05 4.13421e-05 4.18775e-05 -0.000976826 0.000150629
-0.000209703 0.000224121 0.000158767 -0.000670274 0.000272862 -0.000428258 -0.000954584 0.000376599 0.00161682 -0.000172733
0.000249836 0.00160057 0.00162192 0.000103312 -0.000109847 0.000319767 0.00163308 0.00157885 0.000436279 0.00010383
-0.000592863 -0.000153568 -0.000385743 0.000134244 -0.000105623 -0.000894378 -0.000406603 -0.000407001 0.00170516 -0.00025132
0.000146183 -0.000356336 -0.000569026 0.00148983 -0.000330453 -0.000823086 0.000317479 0.000364549 -0.00010073 -0.000100615
-0.00100551 -0.000501984 -0.000773515 0.00179135 0.000265983 0.0013824 2.10252e-06 0.00031696 0.0001728 0.000324415
-0.00108425 -0.00013486 0.000167825 0.00028727 -6.66192e-05 0.000232481 -0.000149902 0.000444502 -0.000631325 0.00195505
-0.000341002 0.00120346 0.000405968 -0.000146897 -0.00107729 0.000523053 -3.89466e-05 -5.40613e-05 0.000201437 -4.88335e-05
0.000233306 -0.000551851 -0.000143121 -0.000143052 -0.000249515 0.000193569 0.000428374 -0.000171713 0.00206947 0.000430101
-0.000259494 -0.00025805 0.00026768 -0.00106077 -0.000201759 0.000849019 -0.000171422 1.1169e-06 0.000333185 -0.000447283
-0.000133125 0.000443008 -0.000103117 9.83116e-05 0.000299758 0.000502055 -6.65947e-05 0.000403971 -9.3385e-05 0.00207517
-0.000940515 -0.000121131 0.000320819 0.00049296 -0.000288208 0.00057521 -7.96751e-05 -7.93369e-05 4.56304e-05 0.000206745
0.000276254 0.000351866 1.62134e-05 3.77747e-05 0.000535847 0.000285034 0.00172786 -9.03214e-05 0.00175523 0.00174786
0.000575624 -0.000106961 -4.95776e-05 -0.000790932 0.00182161 -0.000160772 0.000363012 0.00175854 -1.53092e-05 -0.000164373
-0.000161471 -0.000101747 0.000549779 -0.000616263 -6.96138e-05 -0.00067731 0.00190092 -0.000855612 -4.63951e-06 0.00169334
0.000563229 0.000390837 -2.87406e-05 0.000205656 -0.000925653 -0.000909077 0.000501617 -2.21235e-06 -0.000964977 -5.36061e-05
9.97569e-06 1.0331e-05 0.00199149 0.000106296 0.000650209 0.00158419 0.000637099 -0.00105804 0.000255165 -0.000528882
0.000423425 -0.00104092 -1.45406e-05 0.000338528 0.000374123 0.00066335 0.00047053 0.00214081 5.42714e-05 0.000112851
-0.000986391 0.00141798 2.43141e-05 0.000688891 0.000150813 0.000423292 -0.00099799 2.75839e-05 8.48017e-05 0.000688998
-2.05366e-05 0.00063528 -2.35719e-05 -2.03293e-05 -0.00101537 0.00224651 4.77814e-06 0.000476236 4.33492e-05 3.93193e-05
3.16964e-05 3.17802e-05 0.000272125 -0.000617138 7.07245e-05 0.0010578 -0.000662586 -0.00025095 0.000609006 -0.000831523
0.000160678 -0.000893044 0.000751682 -0.000924941 -0.000867615 0.000353783 0.000784356 0.000101781 -0.000916597 5.35537e-05
0.000380617 -0.000794302 -0.00100441 0.00225831 4.12758e-05 0.000799933 0.000451608 0.000572239 0.000611968 -0.000989953
0.000493332 0.000768987 7.07729e-05 -0.000723607 4.23718e-05 -0.000928481 8.48916e-05 0.000123314 0.000325488 0.000688024
8.01342e-05 0.000840322 0.000117193 -0.000934086 4.40515e-05 4.40737e-05 -0.000666239 0.00189094 0.000260008 0.00195153
0.00187508 0.000152579 0.000550538 0.000727574 0.000101948 -0.000937881 0.000151571 0.000154698 0.00202784 0.000412284
0.00189164 0.000210432 0.000829367 0.000237796 -0.000638426 0.000872663 -0.000637936 -0.000498894 4.68208e-05 -0.000769195
0.00211315 -0.000843745 -0.000846295 0.000423154 0.0018567 0.000105278 -0.000832109 -0.000864594 0.000904828 5.15814e-05
0.000524136 -0.000700005 0.000112315 0.00220711 0.000657014 -0.000284773 -0.000915207 0.000166835 0.00176995 0.000136333
0.000867554 0.0001863 0.000365637 0.000691044 -0.000921472 0.000183869 0.000122945 0.000123192 -0.000621241 0.000688137
0.000944955 -0.000866366 0.000357658 0.00234327 -0.00013412 7.68814e-05 0.00161199 0.000435491 0.000431491 -0.00085546
-0.000548485 0.000800479 0.000143362 0.000858557 0.000278643 0.000941431 0.000473531 -0.000812204 0.000287976 0.000292777
-3.63384e-05 0.000159388 0.00243818 0.000353562 0.000384997 -0.00038137 0.000156478 0.0012696 0.000167835 0.000187674
0.000976428 -0.000733775 0.000251326 0.000105846 0.000516899 0.000260815 0.000164272 0.000272009 0.000679566 0.000180612
0.000180944 0.000938848 -0.000153606 -0.000588382 0.0003967 0.000696538 0.00245123 0.000169148 0.0010046 0.000768686
-0.000494618 0.000482246 0.000229133 -3.14216e-06 0.000403482 0.000880855 0.000496352 0.00016581 0.000513553 -0.000377582
0.000995222 0.000259478 0.000180168 0.000237901 0.000169638 0.000357099 0.000185338 0.00035736 0.000112311 0.00208821