# vtk DataFile Version 2.0
sampleSurface
ASCII
DATASET POLYDATA
POINTS 3098 float
0.746192 0 -5.00894e-05 -6.50534 1.11022e-16 -4.7391e-05 0.739507 0 7.49995 7.99812 0
1.94289e-05 -6.5124 -1.11022e-16 7.49992 7.99235 -1.11022e-16 7.50019 -13.7546 0 -1.50031e-05
0.734852 -1.11022e-16 14.9998 15.2496 -1.11022e-16 6.60617e-05 -13.7602 0 7.49982 -6.51784
-1.11022e-16 14.9998 15.2414 -1.11022e-16 7.50009 7.98685 0 14.9998 -13.7648 0
14.9999 -20.9938 0 4.36099e-06 15.2348 -1.11022e-16 14.9998 -20.9936 2.22045e-16 7.49977
22.5022 0 1.49541e-05 0.735071 0 22.4998 -6.51815 -1.11022e-16 22.4999 22.4915
0 7.49989 7.98745 -1.11022e-16 22.4998 -20.9933 -1.11022e-16 14.9999 -13.7652 1.11022e-16
22.4999 22.4829 -1.11022e-16 14.9998 15.2356 0 22.4998 -28.2515 0 2.62893e-05
-28.2534 0 7.50012 29.7556 -1.11022e-16 -4.54549e-05 0.735819 1.11022e-16 29.9999 29.7426
0 7.4992 -6.51767 0 29.9999 -20.9933 -1.11022e-16 22.5 7.98856 0
29.9999 22.4839 1.11022e-16 22.4999 -28.255 0 15 -13.7649 0 30
29.7256 0 14.9997 15.237 0 29.9999 -35.5072 -1.11022e-16 5.90779e-05 -28.2551
0 22.5 -35.5123 1.11022e-16 7.50007 -20.993 1.11022e-16 30 36.9932 0
-7.53554e-05 29.7252 1.11022e-16 22.4999 22.4857 -1.11022e-16 29.9999 0.736256 -1.11022e-16 37.5
37.0663 -1.11022e-16 7.5 -6.5174 0 37.5 7.98913 1.11022e-16 37.5 -35.5169
-2.22045e-16 15 36.9578 0 14.9999 -13.7648 0 37.5 15.2378 0
37.5 -28.255 0 30 -35.5174 0 22.5 29.7273 -1.11022e-16 30
-42.7594 0 0.000106246 -20.9929 1.11022e-16 37.5 36.9398 -3.33067e-16 22.4999 -42.765
0 7.50013 22.4866 -1.11022e-16 37.5 44.3067 1.11022e-16 -0.000173064 44.3156 -5.55112e-17
3.74923 44.3638 -1.11022e-16 7.50044 0.736588 -1.11022e-16 45 -42.7692 2.22045e-16 15.0001
-6.51713 0 45 7.98959 0 45 -35.5174 0 30 44.2537
1.11022e-16 14.9995 -28.2549 0 37.5 -13.7646 -2.22045e-16 45 15.2384 1.11022e-16
45 36.9405 0 30 29.7284 0 37.5 47.8983 5.55112e-17 -0.000231375
47.9106 0 3.74943 -42.7696 1.11022e-16 22.5 48.0131 0 7.50081 44.229
-2.22045e-16 22.4999 -20.9927 -1.11022e-16 45 -50 -1.11022e-16 0.000116555 22.4873 -1.11022e-16
45 -50 -1.11022e-16 7.50012 51.4805 0 -0.000354952 -35.5173 1.11022e-16 37.5
51.6484 5.55112e-17 3.75115 -50 -2.22045e-16 15.0001 51.6711 0 7.50084 -42.7696
0 30 0.736735 -1.11022e-16 52.5 36.9419 0 37.5 51.4953 -1.11022e-16
11.2492 -6.51706 0 52.5 7.98975 0 52.5 -28.2549 0 45
44.2289 -1.11022e-16 30 51.37 -5.55112e-17 14.9994 29.729 -1.11022e-16 45 -13.7646
0 52.5 51.3052 -2.1684e-19 18.7496 51.3048 -2.60209e-18 18.8318 15.2386 -2.22045e-16
52.5 51.3708 -2.38524e-18 18.7496 -50 1.11022e-16 22.5 54.9985 0 -0.00260162
55.0346 0 1.87535 55.1369 0 3.75138 55.3085 5.55112e-17 7.50038 51.2883
-5.55112e-17 22.4998 55.0461 -5.55112e-17 11.249 -20.9927 0 52.5 56.7456 0
0.0299735 56.7783 -2.77556e-17 1.87544 -42.7696 0 37.5 54.8698 0 14.9993
56.8619 2.77556e-17 3.75216 22.4876 1.11022e-16 52.5 -35.5173 -1.11022e-16 45 54.8229
0 17.1162 51.2808 6.93889e-18 26.2499 55.7413 -6.93889e-18 14.9994 54.8037 0
18.7496 44.2298 -1.11022e-16 37.5 36.9422 -2.22045e-16 45 -50 0 30
58.4645 0 -0.244693 58.5154 0 1.88535 58.9168 0 -0.257294 58.9375
1.38778e-17 1.84572 58.8346 1.38778e-17 4.04008 59.1468 -3.46945e-18 1.82581 59.2027 0
-0.270676 59.0815 0 3.9148 54.7907 0 22.4998 59.2532 0 -0.267831
59.2573 0 1.824 58.2324 -1.38778e-17 11.2624 59.254 0 3.02719 58.004
1.38778e-17 12.6256 59.2576 -3.46945e-18 3.82483 51.283 -6.245e-17 30 57.6498 2.77556e-17
14.9995 -28.2548 1.11022e-16 52.5 59.2774 -2.77556e-17 7.62697 58.8187 2.77556e-17 11.263
58.0011 -1.38778e-17 14.9995 0.736891 0 60 58.3071 0 14.9994 29.7293
1.11022e-16 52.5 59.2786 -2.77556e-17 11.2636 -6.5169 0 60 57.4289 2.77556e-17
18.7498 7.98997 -1.11022e-16 60 58.8533 5.55112e-17 14.9994 54.7868 1.249e-16 26.2499
58.0003 -1.38778e-17 18.7498 58.1668 0 18.7498 59.2769 -2.77556e-17 14.9994 51.2799
6.93889e-18 33.75 -13.7644 0 60 57.3667 0 22.4999 58.7945 0
18.7497 15.2389 1.11022e-16 60 -42.7696 -1.11022e-16 45 59.2786 -2.77556e-17 18.7497
57.9997 2.77556e-17 22.4999 58.1285 -6.245e-17 22.4999 54.7871 0 30 -50
0 37.5 58.7775 2.77556e-17 22.4999 57.3544 0 26.25 44.2301 -1.11022e-16
45 -35.5173 -2.22045e-16 52.5 59.2769 0 22.4998 51.283 -6.93889e-18 37.5
-20.9926 1.11022e-16 60 58.0001 0 26.25 58.1216 0 26.25 22.4878
1.11022e-16 60 36.9426 0 52.5 54.7861 -8.32667e-17 33.75 58.7756 0
26.25 57.3526 -1.66533e-16 30 59.2786 0 26.25 57.9997 -2.08167e-17 30
58.1203 2.08167e-17 30 51.28 0 41.25 58.7742 -5.55112e-17 30 -28.2547
0 60 54.7871 0 37.5 59.2769 0 30 57.3525 0
33.75 29.7295 0 60 58.0002 0 33.75 58.1205 -6.93889e-18 33.75
-50 0 45 0.736925 0 67.5 -42.7695 0 52.5 58.7752
-2.77556e-17 33.75 -6.5169 3.33067e-16 67.5 7.98998 -1.11022e-16 67.5 59.2786 2.77556e-17
33.75 51.2831 -3.46945e-17 45 57.3524 5.55112e-17 37.5 54.7862 1.38778e-17 41.25
44.2303 1.11022e-16 52.5 -13.7644 0 67.5 57.9998 0 37.5 58.1202
4.16334e-17 37.5 15.2389 -1.11022e-16 67.5 58.7741 0 37.5 -35.5171 1.11022e-16
60 59.2769 0 37.5 36.9425 0 60 57.3524 -5.55112e-17 41.25
-20.9926 -1.11022e-16 67.5 51.2801 -6.93889e-18 48.75 54.787 0 45 22.4878
2.22045e-16 67.5 58.0002 6.93889e-18 41.25 58.1204 0 41.25 58.7752 -2.77556e-17
41.25 59.2786 -2.77556e-17 41.25 -50 0 52.5 57.3524 0 45
-28.2547 1.11022e-16 67.5 54.7862 -2.77556e-17 48.75 51.2831 -6.245e-17 52.5 57.9998
6.93889e-18 45 58.1202 -6.93889e-18 45 -42.7695 -1.11022e-16 60 29.7296 0
67.5 58.7741 2.77556e-17 45 59.2769 0 45 44.2304 -2.22045e-16 60
0.737014 0 75 57.3524 0 48.75 -6.51679 -1.11022e-16 75 7.99012
-2.22045e-16 75 58.0002 -6.93889e-18 48.75 58.1204 0 48.75 54.787 -1.38778e-17
52.5 51.2801 0 56.25 -13.7644 0 75 -35.5171 -1.11022e-16 67.5
58.7752 2.77556e-17 48.75 15.239 0 75 59.2786 2.77556e-17 48.75 36.9428
2.22045e-16 67.5 57.3524 0 52.5 -20.9926 1.11022e-16 75 -50 -1.11022e-16
60 57.9998 6.93889e-18 52.5 22.4879 0 75 58.1202 -6.93889e-18 52.5
54.7862 -1.38778e-17 56.25 58.7741 2.77556e-17 52.5 51.2831 -1.38778e-17 60 59.2769
-2.77556e-17 52.5 -42.7695 0 67.5 -28.2547 1.11022e-16 75 57.3524 0
56.25 29.7296 0 75 44.2304 -1.11022e-16 67.5 58.0002 2.08167e-17 56.25
58.1204 6.93889e-18 56.25 54.7871 0 60 58.7752 2.77556e-17 56.25 59.2786
2.77556e-17 56.25 51.2801 0 63.75 0.737004 -1.11022e-16 82.5 -6.51683 0
82.5 7.99007 1.11022e-16 82.5 -35.5171 0 75 57.3524 0 60
57.9998 1.38778e-17 60 58.1202 4.85723e-17 60 36.9426 1.11022e-16 75 -13.7644
1.11022e-16 82.5 15.239 -2.22045e-16 82.5 58.7741 2.77556e-17 60 -50 2.22045e-16
67.5 54.7862 -2.77556e-17 63.75 59.2769 -2.77556e-17 60 51.2831 -6.245e-17 67.5
-20.9926 -1.11022e-16 82.5 22.4879 1.11022e-16 82.5 57.3524 0 63.75 58.0002
6.93889e-18 63.75 58.1204 6.93889e-18 63.75 -42.7695 0 75 58.7752 -2.77556e-17
63.75 54.787 0 67.5 59.2786 2.77556e-17 63.75 44.2304 0 75
-28.2547 -1.11022e-16 82.5 29.7297 0 82.5 51.2801 0 71.25 57.3524
0 67.5 57.9998 1.38778e-17 67.5 58.1202 4.85723e-17 67.5 58.7741 2.77556e-17
67.5 -35.5171 0 82.5 59.2769 -2.77556e-17 67.5 54.7862 -6.93889e-17 71.25
0.737067 -1.11022e-16 90 -50 -1.11022e-16 75 -6.51675 -1.11022e-16 90 7.99018
1.11022e-16 90 36.9429 2.22045e-16 82.5 51.2831 1.17961e-16 75 -13.7643 0
90 15.239 -1.11022e-16 90 57.3524 0 71.25 58.0002 6.93889e-18 71.25
58.1204 6.93889e-18 71.25 58.7752 -2.77556e-17 71.25 -20.9925 1.11022e-16 90 59.2786
2.77556e-17 71.25 22.488 1.11022e-16 90 54.7871 0 75 -42.7695 0
82.5 44.2305 0 82.5 51.2801 -6.93889e-18 78.75 -28.2547 -2.22045e-16 90
57.3524 0 75 29.7297 -1.11022e-16 90 57.9998 1.38778e-17 75 58.1202
4.85723e-17 75 58.7741 2.77556e-17 75 59.2769 -2.77556e-17 75 54.7862 0
78.75 -50 0 82.5 -35.5171 1.11022e-16 90 51.2831 -1.80411e-16 82.5
36.9427 1.11022e-16 90 57.3524 0 78.75 0.737038 0 97.5 -6.5168
0 97.5 58.0002 6.93889e-18 78.75 7.9901 -1.11022e-16 97.5 58.1204 6.93889e-18
78.75 58.7752 -2.77556e-17 78.75 -13.7644 2.22045e-16 97.5 59.2786 2.77556e-17 78.75
15.239 0 97.5 54.787 -1.38778e-17 82.5 -42.7695 -1.11022e-16 90 -20.9926
-1.11022e-16 97.5 22.4879 0 97.5 44.2304 1.11022e-16 90 51.2801 0
86.25 57.3524 0 82.5 57.9998 -6.93889e-18 82.5 58.1202 4.85723e-17 82.5
58.7741 2.77556e-17 82.5 -28.2547 0 97.5 59.2769 -2.77556e-17 82.5 29.7297
1.11022e-16 97.5 54.7862 1.38778e-17 86.25 -50 0 90 57.3524 0
86.25 51.2831 -6.93889e-18 90 -35.5171 -1.11022e-16 97.5 58.0002 1.38778e-17 86.25
58.1204 6.93889e-18 86.25 36.9429 2.22045e-16 97.5 58.7752 -2.77556e-17 86.25 59.2786
2.77556e-17 86.25 0.73709 -1.11022e-16 105 -6.51673 0 105 7.9902 -1.11022e-16
105 54.7871 0 90 -13.7643 0 105 15.239 1.11022e-16 105
-42.7695 -1.11022e-16 97.5 57.3524 0 90 51.2801 0 93.75 44.2305
1.11022e-16 97.5 57.9998 1.38778e-17 90 -20.9925 2.22045e-16 105 58.1202 4.85723e-17
90 22.4881 0 105 58.7741 2.77556e-17 90 59.2769 -2.77556e-17 90
54.7862 0 93.75 -28.2547 0 105 29.7297 0 105 -50
-1.11022e-16 97.5 57.3524 0 93.75 51.2831 -1.04083e-16 97.5 58.0002 6.93889e-18
93.75 58.1204 6.93889e-18 93.75 58.7752 -2.77556e-17 93.75 -35.5171 0 105
59.2786 2.77556e-17 93.75 36.9427 -1.11022e-16 105 54.787 1.38778e-17 97.5 0.737054
-1.11022e-16 112.5 -6.51679 2.22045e-16 112.5 7.99012 -1.11022e-16 112.5 57.3524 0
97.5 -13.7644 0 112.5 -42.7695 0 105 57.9998 1.38778e-17 97.5
51.2801 -6.93889e-18 101.25 58.1202 4.85723e-17 97.5 15.239 -1.11022e-16 112.5 58.7741
2.77556e-17 97.5 44.2305 1.11022e-16 105 59.2769 -2.77556e-17 97.5 -20.9926 1.11022e-16
112.5 22.4879 -1.11022e-16 112.5 54.7862 0 101.25 -28.2547 0 112.5
-50 2.22045e-16 105 29.7297 0 112.5 57.3524 0 101.25 58.0002
1.38778e-17 101.25 58.1204 6.93889e-18 101.25 51.2831 2.08167e-17 105 58.7752 -2.77556e-17
101.25 59.2786 2.77556e-17 101.25 -35.5171 -2.22045e-16 112.5 36.9429 1.11022e-16 112.5
54.7871 0 105 57.3524 0 105 57.9998 1.38778e-17 105 0.737101
-1.11022e-16 120 58.1202 4.85723e-17 105 -6.51672 0 120 51.2801 6.93889e-18
108.75 7.99022 -1.11022e-16 120 58.7741 2.77556e-17 105 -42.7695 0 112.5
59.2769 -2.77556e-17 105 -13.7643 -1.11022e-16 120 44.2305 0 112.5 15.239
-1.11022e-16 120 54.7862 -2.77556e-17 108.75 -20.9925 0 120 22.4881 0
120 57.3524 0 108.75 -50 0 112.5 58.0002 6.93889e-18 108.75
[...]
POINT_DATA 3098
FIELD attributes 2
p 1 3098 float
2.37481 2.31679 2.78004 2.48699 2.71138 2.8429 2.27936 2.59235 2.66304 2.6608 2.55295
3.06422 2.71118 2.53858 2.15883 2.88801 2.54829 2.89309 2.43205 2.39608 3.35623
2.5251 2.45595 2.36669 3.11066 2.67414 2.07702 2.45696 3.32981 2.3995 3.77603
2.36589 2.27982 2.48652 2.85296 2.39383 2.33619 3.49314 2.62733 2.12528 2.22774
2.47412 2.2437 3.75379 3.03143 2.80179 2.38677 4.04478 2.35521 2.47329 2.43738
4.03217 2.3302 2.61167 2.18645 2.29407 3.00864 2.25013 2.23756 3.17067 2.52365
2.78251 4.76837 3.85139 4.3588 2.37648 2.51816 2.34615 2.4613 2.2535 4.52721
2.17789 2.32303 2.59804 3.15747 3.01398 5.48426 4.01077 2.41369 4.31325 3.34047
2.23056 2.32461 2.76438 2.54627 5.54926 2.24306 3.73978 2.55241 4.92862 2.37728
2.3736 3.19201 6.17251 2.34416 2.45735 2.17104 3.37033 4.60638 2.99505 2.32194
3.33554 3.33286 2.59466 3.33892 2.4698 4.85304 3.39858 3.30568 5.03299 3.21936
6.58864 2.23011 4.72298 3.04709 2.36388 4.83817 2.22536 2.76192 2.23551 4.09414
3.31737 4.83498 3.51915 3.43458 3.17744 2.43623 5.14911 2.21473 5.11886 2.09985
0.723497 1.85173 5.09084 0.244061 3.25789 5.10763 1.79311 6.56691 0.482042 6.03636
-0.240511 3.43685 4.81131 2.17152 4.66119 5.57199 4.43586 2.37374 3.9854 2.9932
5.44774 2.34474 3.4716 2.45753 3.98319 3.38128 3.22301 3.1018 3.75669 3.50074
2.32274 3.16075 2.82547 2.5969 2.35454 2.60698 2.90766 2.82382 3.46977 2.42101
2.55353 3.25825 3.42456 2.23507 2.3458 3.52151 2.2319 3.00029 2.92323 2.76816
3.18069 3.52971 2.66648 3.32751 2.46887 3.06496 2.98467 3.50617 2.71411 2.17433
3.54641 2.50647 3.37233 3.00536 3.09955 3.01867 2.41076 2.37455 2.35202 2.75078
2.3455 2.45918 2.54616 3.51824 3.39386 3.5494 3.43563 2.32288 3.12149 3.03745
2.60113 2.75584 2.23711 2.5407 3.203 3.40124 2.23273 3.51538 3.55674 2.77667
3.12924 3.04747 2.77691 2.56971 2.40731 3.41718 2.17604 3.57422 3.54697 3.14897
3.0655 2.35263 3.02057 2.78649 2.57251 3.47066 2.37528 3.43845 2.34596 2.46099
3.17061 3.08985 3.60082 3.56179 2.32227 2.23842 2.82441 2.60538 2.62035 3.22835
3.47292 2.23225 2.40718 3.20883 2.7841 3.12678 3.63384 2.8553 3.6001 2.64646
2.35347 2.17611 3.5089 3.03281 3.5078 3.24486 3.16553 3.66708 2.90818 2.70993
3.61638 2.37593 2.34637 2.46284 2.23835 3.54846 3.28716 3.20618 3.24766 2.32166
2.60953 2.94122 2.4078 3.69817 2.7369 3.64874 2.23147 2.79068 3.58047 3.31807
3.23949 2.35344 2.98734 3.72462 2.79274 3.53496 2.17548 3.04244 3.65774 3.61197
3.35174 3.27144 3.01147 2.23761 2.81079 3.74707 2.37705 2.40788 2.34723 2.46499
3.26195 3.68285 2.32158 2.61348 3.6348 3.37341 3.29552 3.04816 2.2311 2.85703
2.79625 3.76541 2.35291 3.5546 3.68566 2.17502 3.6571 3.0499 3.39739 3.31763
3.06171 2.86394 3.7802 2.40756 2.23696 3.70606 3.27184 3.67074 2.37854 2.34848
3.40909 2.46725 3.33143 3.08676 2.32199 2.89753 2.61709 3.79274 2.35233 2.23111
2.80086 3.56775 3.70478 3.68614 3.42559 3.3458 3.09129 2.17484 2.89447 3.05545
3.80254 2.40713 3.69438 3.72054 2.23658 3.43195 3.3542 3.27872 3.11054 2.92193
2.38007 2.34976 2.46932 3.8098 2.32266 2.62012 2.35193 3.70408 3.71534 3.5762
3.44264 2.23151 3.36266 2.8045 3.10848 2.91177 3.81512 2.17499 3.05964 2.40682
3.70743 3.72891 3.44416 3.36612 3.12224 2.23651 2.93323 3.28371 3.81969 2.38153
2.35095 2.47115 3.71428 2.32347 2.3518 3.4522 3.72193 3.37196 2.62254 3.11764
3.5819 2.92058 2.23213 2.8073 3.82305 2.17538 2.40674 3.06262 3.71573 3.45188
3.3736 3.7338 3.12931 2.93987 2.23673 3.28694 3.82552 3.72028 3.45766 2.38275
3.37717 2.35192 3.72496 2.47263 3.12232 2.35194 2.92477 2.32428 3.58519 2.62437
3.82685 2.23283 2.80935 3.71959 2.40688 3.4552 2.17584 3.37667 3.13192 3.06463
3.73532 2.94198 3.82761 2.23706 3.28887 3.72258 3.45955 3.37883 3.12353 3.72541
2.92546 2.35221 2.38378 2.35266 2.47385 3.58702 2.32498 2.62567 3.82774 2.23344
2.81077 3.72059 3.45593 3.37722 2.40712 3.13219 2.94185 3.73538 2.17629 3.06601
3.82772 2.23746 3.29017 3.72267 3.45944 3.37856 3.12301 2.92455 3.72528 2.35254
3.58794 2.38455 2.35321 2.47472 3.82753 2.32559 2.6265 3.72023 2.23394 3.45535
3.3765 2.8117 2.40742 3.13126 2.94059 3.73481 2.17661 3.06686 3.82709 2.23777
3.72202 3.29083 3.45872 3.37773 3.12206 2.92334 3.72409 2.35284 3.58824 3.82653
2.38512 2.35358 2.47534 2.32603 3.71936 2.62701 3.45451 3.37559 3.13033 2.40768
2.93947 2.2343 2.81226 3.73371 2.17683 3.06728 3.82602 3.72114 2.23802 3.45793
3.3769 3.29112 3.12126 2.92241 -1.27426 -1.34784 3.72317 -1.21089 -1.11279 -1.22831
-1.14452 -1.28868 2.35309 -1.17246 -1.07792 -1.20709 3.82563 3.58824 -1.10046 -1.26918
-1.16589 -1.2078 -1.16264 -1.20347 -1.11994 -1.15891 -1.11724 2.3856 -1.03091 -1.02898
3.71863 2.35385 -1.30917 2.4758 -1.21615 -1.04123 3.45387 -1.03936 3.37491 2.32634
3.12975 2.6273 -1.09459 -1.09284 -1.32964 2.93881 -1.25524 2.40791 -1.01482 -1.03604
-1.1455 -1.14366 -0.973545 3.73284 2.23452 -1.27623 -0.90463 -1.3374 2.81255 -1.18325
-1.18139 -0.905789 -0.945755 -1.28456 -0.915401 -0.924211 -1.33824 -1.20483 -1.20298 2.17692
-0.87745 3.82521 -0.826561 -0.987713 3.06745 -0.820706 -1.2858 -1.21387 -1.21203 -1.33497
-1.02091 3.72054 -0.852437 3.45747 3.37643 -0.886576 3.12098 2.23819 -1.04133 -1.28311
-1.21556 -1.21373 2.92211 -0.812334 -0.81263 3.29114 -0.777354 -1.33072 -0.919082 -0.735515
-1.05089 3.72227 -0.729032 -1.21358 -1.21177 -1.27941 -0.936593 -0.751305 -1.32581 -1.05368
-0.781245 2.35328 -0.948692 3.82495 -1.21061 -1.20881 3.58811 -1.27497 -0.808552 -1.05308
-0.69241 -0.685925 -1.32036 -0.661132 -0.950167 3.71825 -0.630669 -0.827086 3.45374 -1.20678
3.37483 -1.205 -0.621571 2.38593 3.13006 -1.26987 2.354 2.47609 -1.05152 2.93927
-0.635017 -0.952574 -0.837596 2.32651 2.40809 -1.31593 2.62746 -0.657934 3.73244 -1.20214
-1.20036 -0.842252 2.23464 -1.26573 -1.04894 -0.681483 -0.949923 2.81273 -1.3138 -0.698671
3.82488 -0.843624 -1.19841 -1.19664 2.17692 -0.950231 -1.04514 -0.582452 -1.2638 3.06763
-0.574718 -0.709599 -0.558036 3.72045 -0.538038 -0.843914 3.45764 3.37665 -0.52891 -1.31263
3.12154 -0.715525 -1.19677 -1.195 -0.944974 2.92279 -0.533892 -1.04193 2.23826 -1.26268
3.2912 -0.546773 -0.843058 3.7223 -0.71796 -0.562676 -0.944063 -1.3114 -1.19574 -1.19397
-1.04052 -0.8404 -0.575908 -0.719393 2.35338 3.82494 -1.26141 3.58786 -0.585773 -0.940764
-0.485657 -0.479859 -0.468585 3.71829 -1.31038 -1.0394 -1.19443 -1.19266 -0.719448 -0.837843
-0.455083 3.45387 3.37497 -0.446362 -0.592153 3.1304 2.93964 -1.26028 -0.446091 2.38613
2.35407 2.47622 2.4082 -0.941541 -0.717599 -0.451606 -0.595682 2.32657 -0.836575 -1.03757
3.73246 2.62747 -1.19317 -1.19139 -1.31094 -0.460926 2.23463 -0.598127 -1.26076 2.81276
-0.715355 -0.470477 -0.937224 3.8251 -0.83543 -1.03574 -0.478624 -1.1936 -1.19182 2.17681
-1.31169 -0.599197 -0.440044 -0.435596 3.72072 3.06774 -0.428081 3.45795 -0.714267 3.37695
-0.419436 3.12202 -0.484635 -1.26144 -0.412557 2.92329 -0.936931 -0.832886 -0.410791 -0.598707
2.23826 -1.03574 -0.488784 -0.413306 -1.19423 3.29125 -1.19244 3.72213 -0.713149 -1.31164
-0.41959 -0.597485 -0.93454 -0.491714 -1.26128 -0.830484 -0.427274 3.82523 2.35343 -1.03589
-0.710508 3.58763 -1.19398 -1.19219 -0.434433 -0.493519 -0.596932 3.71883 -0.335502 -1.31154
-0.332584 -0.328289 3.45459 3.37571 -0.323325 -0.82979 -0.936331 3.13138 -0.44001 2.9407
-0.318736 -1.26114 -0.494121 -0.317092 -0.7079 -1.03501 2.40828 -0.59616 2.38623 -0.444116
2.3541 -0.318178 2.47626 -1.19383 -1.19204 3.73256 2.32656 -1.31178 -0.322413 2.62749
-0.829326 -0.493943 -0.932842 -0.447196 -1.26138 2.23458 -0.328364 -0.706957 3.82545 -0.594195
2.81283 -1.03429 -0.334378 -0.44934 -0.493889 -1.19414 -1.19235 3.72122 -0.317194 2.17664
-0.315948 3.45859 3.37761 -0.314182 -0.827502 3.06795 -1.31202 -0.311592 3.12291 -0.933651
-0.339046 2.92425 -0.592117 -0.308717 -0.706186 -0.450433 -1.2616 -0.307083 -0.493577 -1.03437
-0.34264 2.23816 -0.307071 3.72255 3.29159 -1.19438 -1.19259 -0.450759 -0.309673 -0.82594
-0.591167 -0.345573 -0.93144 -1.31212 -0.704095 -0.492476 -0.313986 3.82567 2.3534 -1.26158
-1.03437 -0.451057 -0.347689 -0.318912 3.58771 3.71933 -0.262451 -0.262681 3.45518 3.37631
-0.26264 -0.590289 -1.19426 -1.19246 -0.82559 3.13214 -0.491203 -0.261658 -0.322624 2.94148
-0.702087 -0.933292 -0.260135 -0.348869 -1.31213 -0.451126 -0.258863 -0.325712 2.40827 -0.258481
-1.2615 -1.03359 3.73277 2.38631 2.35412 -0.349364 2.47628 -0.490372 -0.58848 -0.260025
-0.328413 2.32652 -0.82527 -0.450547 2.62749 -1.1941 -1.19231 -0.701606 -0.263186 -0.9299
3.82595 2.23445 -1.31225 -0.349919 2.81282 -0.330475 -0.26707 3.72194 -0.489579 -1.26162
3.45944 -0.586699 -1.03289 3.37848 -0.449694 -0.196477 -0.198195 2.17642 3.12395 -0.199663
-0.270082 2.92534 3.068 -0.199805 -0.331558 -0.823578 -0.350195 -0.701103 -0.198667 -1.19426
-1.19246 -0.930791 -0.197368 -0.272682 2.23803 -0.48825 -0.196846 -1.31255 3.72272 -0.449094
-0.33212 3.29156 -0.586142 -0.275202 -0.197859 -0.349892 -1.03295 -1.26188 -0.200099 3.82633
-0.822076 -0.699153 -0.332746 -0.277173 -1.19451 -1.19272 2.3533 -0.928669 -0.448474 -0.486982
-0.203051 3.72029 3.58754 -0.349316 3.4563 3.37745 -0.585496 -0.117175 -0.120038 -1.3126
3.13345 -0.122657 -0.205413 -0.27821 2.94284 -0.333134 -0.123686 -1.0331 -0.122367 -1.26179
-0.697217 -0.120754 -0.821909 -0.207533 -0.447442 2.4082 -0.349004 -0.48632 -0.278827 -0.120127
3.73313 -1.19427 -1.19247 -0.930801 -0.332921 2.38628 -0.120633 -0.209722 -0.583635 2.35409
2.47618 2.32647 -1.31271 2.62739 -0.122214 3.82663 -0.279564 -0.348575 -0.446424 -1.03244
-0.211517 2.23432 -1.26173 -0.696974 -0.332521 -0.124443 -0.82193 -0.485615 2.81269 3.72276
3.46035 3.37939 0.086894 0.0828487 3.12493 -0.280054 0.0795407 -0.126173 -1.19401 -0.927695
-1.19221 2.9263 -0.212497 -0.58169 0.0779666 2.17616 3.06802 0.07952 -0.347742 -0.332344
-0.445769 0.0812885 -0.127874 -1.31295 -0.213183 0.0822621 -0.484035 -0.280002 -1.03185 3.7232
-0.696867 2.23783 -0.820702 -1.26184 0.0824789 -0.129731 3.29174 -0.581237 0.0813836 -0.346903
-0.331998 -0.928915 -0.214031 3.82693 -1.19398 -1.19217 -0.44512 -0.131374 -0.279733 0.0796012
2.35315 3.72091 3.5875 -0.482435 3.4569 3.37802 -1.31318 0.0793106 0.0745814 3.13394
-0.214644 0.0783485 -0.69552 -0.132273 0.0714266 -1.03185 2.94318 0.0700201 -0.819638 -0.331217
-0.346344 -1.26199 0.0716079 -0.279752 -0.580872 0.0769266 0.07345 -0.443902 -0.926843 -0.13301
2.40807 -1.19404 -1.19224 0.0745501 -0.214655 3.73345 0.0752447 -0.481768 0.0750503 -0.330497
-0.279525 2.38614 2.35398 -0.345761 2.47597 -0.133961 -0.694137 0.074136 -1.31375 3.82732
-1.03203 0.07365 2.32633 -0.819554 -0.214508 2.62715 -0.44268 0.0728129 -0.579468 -1.26246
3.72358 2.23412 3.46118 2.81243 3.38017 -0.134704 -0.929219 0.0728301 0.0718361 0.0540766
3.12556 -0.278904 0.0350197 -1.19441 -0.330029 -1.1926 0.0460695 2.92675 -0.481233 0.0302786
-0.214674 -0.344868 2.17587 0.0457387 0.0707398 3.0679 0.0333401 -0.693996 0.0720807 -0.134729
-1.31409 -0.44201 0.0483783 -1.03214 -0.819855 -0.577928 3.72362 0.0691423 -0.278283 2.23761
0.0345912 -1.26275 -0.329563 -0.214667 3.29168 0.071091 -0.927014 0.0479885 -0.479861 -0.343967
-0.134675 3.82793 0.0676871 -1.19465 -1.19284 0.0327454 2.35294 3.72211 0.0702587 -0.694196
-0.441422 -0.278026 3.45814 3.37921 0.0667617 -0.214145 3.58726 0.0462521 3.13496 -0.328765
-0.819489 -1.31424 -0.577571 2.94403 -1.03216 -0.135002 0.0310595 -1.2629 -0.343343 0.0660363
-0.478438 0.0702309 -0.92896 2.4079 -0.213616 -0.27775 -1.19482 -1.19301 0.0440534 3.73408
-0.135178 -0.440248 -0.327988 0.0649561 -0.693633 0.0702421 0.0283874 -0.577388 2.38599 3.82849
-0.819158 2.35386 2.47573 -1.03232 -1.31446 -0.342729 2.32621 2.62687 -0.477888 -0.213513
0.0641166 -0.134695 3.72483 -0.277086 -1.26311 0.0418625 3.46237 3.38129 2.23391 0.0698861
-0.92703 3.12639 0.0699935 2.81211 2.92731 0.0632905 -0.327382 -0.439054 -1.19504 -1.19323
0.0640636 0.0638811 0.0266219 2.17559 -0.692995 3.06768 -0.134252 -0.57634 -0.213374 -0.341764
0.0670532 0.0696415 -0.819221 -0.276386 -1.03251 3.72437 -1.31446 -0.477361 0.0400789 2.23738
0.0638809 3.2916 -0.326843 -1.26311 0.0678243 -0.438391 -0.929293 3.82899 -0.134308 0.07011
-0.212715 0.0247908 -1.19504 -1.19323 3.72315 -0.693013 -0.340774 0.0634462 2.35273 -0.276012
3.45906 3.38002 -0.575164 0.067809 3.13539 3.58699 2.94411 -0.819376 -0.475974 0.0389257
-1.03238 -0.325949 -1.31444 0.0704993 -0.134276 -0.437681 0.0632071 -0.212056 -1.26307 2.40771
0.066875 -0.926996 3.73444 -0.275602 0.0243321 -0.340016 -1.19498 -1.19317 -0.693049 -0.574955
0.0704336 -0.133599 3.82939 0.063448 -0.32506 -0.474498 2.38577 -0.819001 2.35366 2.47549
-0.21187 0.0384431 -1.03219 0.0654044 2.32602 3.72584 -0.436298 2.62659 -1.31453 3.4633
3.38211 3.1268 -0.274847 0.16846 2.92736 0.175354 2.2337 0.162956 -1.26314 2.81171
-0.33918 0.0704093 -0.928795 0.0638102 0.17329 0.164586 -0.133007 0.0237207 0.177278 -0.692542
-1.19502 -1.19321 2.17535 -0.574783 -0.324271 3.06728 -0.211623 0.167247 -0.474082 0.0639591
3.72448 0.177851 -0.818644 -0.434899 0.0636623 -0.274046 0.0710629 2.23716 -1.03211 0.0383309
0.167748 3.29123 -1.31465 -0.132992 3.82978 -0.337888 0.178782 -1.26323 -0.926559 -0.210915
3.72416 -0.323498 3.46003 3.3809 0.16802 2.35252 -0.692016 0.0636415 -0.573903 3.13591
-1.19508 -1.19327 0.0240787 0.0311153 2.94431 3.58641 0.028163 0.0629541 0.0715601 0.0263405
-0.473747 0.0263036 -0.273437 0.178168 0.0280644 -0.434299 -0.132933 -0.818429 0.0299415 -1.03209
-0.336622 0.167245 0.0304665 2.40752 -1.31464 -0.210211 0.0384526 0.0640659 3.73452 0.0304542
-0.322361 0.071499 -0.928582 0.177526 -1.26321 0.0308652 -0.572958 -0.691801 3.83001 -0.272796
0.0625963 -0.132268 -0.472584 0.0312343 -1.19503 -1.19322 0.166085 2.38532 -0.433724 2.35333
2.47499 3.72656 0.0239102 0.0645222 -0.818325 0.0310395 3.46393 3.38262 2.32575 -0.335819
2.62603 3.12687 -0.209743 2.92705 -0.235344 0.0714713 -0.230089 0.175857 -1.03198 -0.238972
2.23335 0.0306077 -0.23154 -0.321304 2.81102 -1.31457 -0.237113 -0.227612 -0.131617 -0.926336
-0.271896 0.0304422 -1.26313 2.17497 0.0386922 0.164877 -0.234684 -0.572566 3.06655 -0.691559
0.0643638 -0.471337 0.0626053 3.72456 -0.226903 -0.432488 -1.19493 -1.19312 0.0302273 -0.209272
0.0722026 -0.234172 -0.335057 2.23682 0.175312 -0.818053 3.29061 3.83016 -0.320493 -0.226246
0.0294554 0.0245302 -1.03183 -0.131288 3.72452 0.0643637 -0.271005 -0.234088 3.46023 3.38097
0.164043 -1.31478 2.35221 3.13547 2.94344 0.0287101 -0.928282 3.58559 -1.26334 -0.572202
0.0729214 -0.226764 -0.470845 -0.691235 -0.208504 -0.431269 0.174153 -0.333924 0.0626574 -1.19515
-1.19334 0.0389209 0.0284911 -0.234413 -0.319836 -0.130969 2.40724 -0.817871 0.0650238 3.73423
-0.226911 -0.270378 -1.03202 0.02841 0.163672 0.0731717 3.83025 -1.31492 -0.207727 -0.235197
0.024417 -0.926379 -0.571491 -0.470545 -1.2635 -0.430826 -0.690911 3.7269 0.0278185 2.38463
2.35275 3.46417 3.38274 -0.332875 2.47414 0.065809 0.174591 -0.130258 3.12648 -0.22819
2.32518 2.92624 -0.318909 2.62502 -1.19533 -1.19352 -0.121336 -0.124273 0.0628893 -0.817979
2.23274 -0.269834 -0.124142 0.0273756 2.80984 0.0734052 -0.235869 0.0394494 0.163533 -1.03217
-0.20724 -0.122562 2.17439 3.06524 3.72397 0.0659266 -1.31467 -0.469691 0.0275835 -0.570833
-0.228301 -0.430461 -0.129561 -0.928632 -0.122126 -0.332387 -0.691018 -1.26329 2.2363 -0.318085
3.83027 0.173795 3.2893 0.0742178 -0.269138 0.0255876 -1.19515 -1.19335 -0.236402 3.72486
0.0278819 -0.818137 -0.122081 3.46055 3.38119 3.13527 -0.206831 2.35172 2.94289 0.0661403
0.0631878 3.58414 0.163471 -1.03203 -0.129238 -0.229166 0.0274501 -0.468843 -0.42958 -0.570707
-0.122275 -1.31442 -0.331908 -0.926461 0.040167 -0.31752 0.0749306 -0.691081 2.40677 -1.26308
-0.268453 3.73343 -0.236486 0.174562 -1.195 -1.19319 0.0668981 -0.206233 0.0271158 -0.817985
3.83003 -0.122727 -0.128939 -0.22861 3.72681 0.0258468 -1.03189 3.46399 3.38244 0.16369
0.0751351 2.38417 -0.428631 3.12572 -0.468496 2.35239 -0.330979 2.47347 2.92509 0.027504
-0.57063 0.0636183 0.17605 -0.317032 0.174432 2.32485 -1.3145 2.62404 -0.92845 -0.267965
-0.690921 0.174467 0.0676755 -0.236578 -1.26322 -0.123172 2.23239 -0.205624 2.80853 0.175401
0.174119 -1.19521 -1.19341 -0.128359 0.0279975 2.17404 0.0409376 -0.817894 3.06368 3.72296
0.0753086 0.175891 -0.229252 -1.03217 -0.428185 -0.330036 2.23591 3.82957 -0.468374 -0.316195
3.2878 0.0677431 -0.570172 -0.123444 -0.267489 0.163891 0.0277172 0.176057 3.72416 -1.31457
-0.690731 -0.926704 -0.205242 3.45969 3.38019 -0.236413 3.13374 0.0271129 2.94092 -1.26332
-0.127795 2.35131 0.0640706 3.58252 0.0759803 -1.19533 -1.19353 0.176087 -0.818146 0.0274847
0.175038 -0.228377 0.0678509 -0.123536 -0.329557 -0.427884 -0.315439 2.40635 -0.467773 -0.266826
-1.03229 3.73211 -0.569732 -0.204883 0.041614 0.175783 -0.690968 -0.127512 -0.92897 -1.31422
3.82909 0.0278963 -0.23626 0.164265 0.0765627 -1.26298 3.72592 3.46299 3.38131 0.0684622
3.12407 -1.19498 -1.19318 2.92301 -0.818313 0 2.38422 2.35257 0 2.47324
-0.123514 0.0645617 -0.314965 -0.329127 0.175605 2.32509 -0.266204 0 -0.4272 2.62334
0.0272326 0.0284234 -0.228881 -0.467202 -0.204318 0.174791 -1.03201 2.23257 -0.56979 2.80732
0 -0.127205 0.076772 -0.691028 2.17415 -0.926678 -1.31385 3.72134 3.06199 0
0.0691581 -1.26264 -0.23607 0.0282231 0.175422 3.8284 2.23581 0.0421795 0.164609 -1.19464
3.28609 -1.19284 -0.818077 -0.123513 0 -0.314615 -0.265842 -0.328407 3.72311 -0.426509
-0.203822 3.45859 3.37899 -0.467133 3.13214 -0.126638 2.93899 2.35104 -0.569702 -1.03177
0.0770618 -0.227995 3.58044 0.028068 0 0.0692734 -0.690843 0.0649354 0.175425 -0.928623
0.175772 -1.31406 0.0283389 2.40605 -1.26287 3.72986 -0.265526 -0.235833 -0.314005 0
-0.32772 -0.203559 -0.817984 -0.123446 -1.19491 -1.19312 0.0284814 -0.426264 -0.126214 3.82719
-0.46706 0.0776741 0.165 0.0695418 -0.569374 3.72408 -1.03217 3.46107 3.37929 0.175412
3.12164 0.0428876 2.92024 -0.690699 -0.228406 0 2.38339 -0.927062 2.35191 2.47188
-1.31427 0.0290082 2.32435 2.62119 -0.265054 -1.26311 -0.313483 -0.203329 2.23167 -0.32737
-0.126003 0.175486 2.80436 0.0653557 0.0781012 -0.426057 -0.818451 -1.19517 -1.19337 -0.123417
0.0700985 -0.466596 3.71827 -0.235632 2.17316 3.05839 0 0.028646 -0.569071 0.1754
0.0288101 -1.0325 3.82553 2.23471 -0.69119 3.28227 3.72024 0.16523 -0.929568 3.45558
3.37587 -1.31392 3.12856 -0.264587 -0.202887 2.93504 -0.313146 -0.227564 -0.125786 0.0782537
-0.327036 2.34987 -1.26276 0.0706271 3.57634 0 -0.425423 0.0286244 -0.818863 -1.19479
-1.19299 0.0435347 -0.466228 -0.12333 0.175407 -0.569385 2.40489 0.176338 -1.03218 3.72569
-0.235418 0.0658037 -0.691492 -0.2643 -0.202454 -0.125289 -0.927232 3.82347 0.0289787 0.0784431
-0.312843 -1.31357 0 0.0706665 -0.326381 3.7205 0.0295691 3.4574 -1.26241 3.37552
-0.424898 3.11746 2.91574 0.165622 -0.81861 -0.228009 -0.466331 -1.19442 -1.19262 2.38085
2.34947 2.46851 -0.569512 0.175389 2.32174 2.61638 -0.123254 0.0294715 -1.03187 2.22874
2.79824 -0.124864 -0.202187 -0.263971 0.0790019 -0.69132 0.0708588 0 -0.312225 3.71246
-0.929061 2.17013 0.0439899 -0.235282 -0.325851 0.1762 3.05117 -1.3137 -0.424784 3.82019
-1.26253 2.23192 0.0661924 -0.818404 0.0293288 -0.466398 3.27417 3.71514 -1.19453 3.4505
-1.19273 3.37073 3.12321 2.92952 -0.569305 0.175411 2.34729 0.0794233 -0.124592 -0.227225
-0.201895 0.0714015 -0.26338 -1.03206 3.5673 0.165969 0.0297392 0 -0.691061 -0.3118
-0.123208 -0.325767 -0.927259 0.029216 2.40231 -1.3138 -0.424678 3.71658 -1.26263 -0.466171
-0.818637 -0.235049 3.81468 -1.19461 -1.19281 0.177067 -0.568992 0.0796388 -0.124337 0.0719446
3.71199 -0.201363 0.0446065 3.44898 -0.262915 3.36707 3.10888 2.90703 0.0295595 -1.03219
-0.311793 0.175403 0 -0.69134 0.0664022 -0.325577 2.38136 -0.929533 2.35038 2.46797
-0.227596 -0.42432 2.32189 -0.123183 2.6141 -1.31323 0.166354 2.22814 -1.26206 -0.465889
2.79307 -0.818829 3.70123 0.0798261 0.0720572 -0.123832 0.0307295 0.0300285 -1.19401 -1.19221
2.16918 -0.200942 -0.569175 3.04437 -0.262893 3.80938 -0.311692 -0.234904 2.23088 -1.03164
3.70447 0 -0.691435 3.26897 -0.3252 3.43975 3.35992 3.11206 0.17541 2.91808
0.176935 -0.926957 -0.42388 2.34603 -1.31254 0.029909 3.56288 -0.465929 0.0722898 0.0803382