/*--------------------------------*- C++ -*----------------------------------*\
  =========                 |
  \\      /  F ield         | OpenFOAM: The Open Source CFD Toolbox
   \\    /   O peration     | Website:  https://openfoam.org
    \\  /    A nd           | Version:  10
     \\/     M anipulation  |
\*---------------------------------------------------------------------------*/
FoamFile
{
    format      ascii;
    class       surfaceScalarField;
    location    "0";
    object      phi;
}
// * * * * * * * * * * * * * * * * * * * * * * * * * * * * * * * * * * * * * //

dimensions      [0 3 -1 0 0 0 0];

internalField   nonuniform List<scalar> 
25639
(
0.185317
-0.712742
0.00011956
2.91352
-0.816744
0.185316
0.120792
0.120844
-0.712744
-0.641769
-0.64177
0.185325
-0.712756
-0.000128787
0.000109555
2.91349
-0.816702
0.185327
0.120797
0.120853
-0.712755
-0.64178
-0.641779
0.644184
-12.6238
-0.000312476
11.9625
-1.83227
0.000286474
0.60257
0.644295
0.602519
-15.4424
0.00166993
4.18519
4.18513
-11.4063
-10.9816
-11.4059
-10.981
47.7865
0.000732564
-0.535763
0.488151
-0.535556
0.487956
45.3679
0.00110538
1.39872
1.45519
1.39879
1.45497
0.00159264
0.185331
-0.712766
-9.35786e-05
7.63086e-05
2.91353
-0.816767
0.185332
0.120801
0.120853
-0.712765
-0.641788
-0.64174
-0.312052
12.7468
0.763251
0.000143653
-0.182313
-0.311974
-0.182286
0.644188
-12.6234
-0.000262424
11.9623
-1.83256
0.000221483
0.602688
0.644211
0.602638
-15.4411
0.00108308
4.18527
4.18539
5.29026
-11.4059
-10.9809
-11.4061
-10.9807
47.7833
0.000521218
-0.535344
0.488005
-0.53533
0.487998
45.3652
0.000748781
1.39862
1.45489
1.39864
1.45482
0.0010448
0.185332
-0.712725
-6.04907e-05
4.14144e-05
2.91355
-0.816772
0.185334
0.120803
0.120852
-0.712772
-0.64184
-0.641746
-16.3824
0.00068256
-9.78631
-9.59349
-9.78633
-9.59332
5.72429
4.42014
5.72433
4.42003
-0.312053
-0.000118286
12.7466
0.763242
9.1327e-05
-0.18231
-0.311976
-0.182281
0.644202
-12.6233
-0.00018083
11.9623
-1.83241
0.000140878
0.602585
0.64422
0.602455
41.2636
-15.4406
0.00050982
4.1852
5.29023
4.18522
5.29013
-11.4061
-10.9806
-11.4061
-10.9804
-11.4726
0.000653141
47.782
0.000248842
-0.53533
0.488051
-0.535116
0.487851
45.3638
0.000363702
1.39868
1.45476
1.3987
1.45481
41.6416
0.00049699
0.000632515
-3.01037e-05
-2.4641
2.76853e-05
2.92752
-0.463421
0.185329
-0.712732
-1.95067e-05
3.75753e-06
2.91358
-0.816759
0.18533
0.120803
0.120847
-0.712779
-0.641845
-0.641753
-16.3822
-2.91127e-05
-9.78637
-9.59335
-9.78637
-9.59335
5.72436
4.42004
5.72437
4.42004
-0.312053
-5.72754e-05
12.7469
0.763245
1.5854e-05
-0.182421
-0.311969
-0.182394
0.644232
-12.6233
-0.000102252
11.9623
-1.8325
2.28532e-05
0.602616
0.644263
0.602508
41.2629
-15.4402
-1.90075e-05
4.18519
5.2901
4.18521
5.29013
-11.406
-10.9804
-11.406
-10.9804
-11.4729
-2.90711e-05
47.7811
-5.35352e-05
-0.535133
0.487878
-0.535307
0.48807
45.3634
-4.21789e-05
1.39874
1.45458
1.39874
1.45459
41.6414
-2.90811e-05
-3.0018e-05
1.50563e-06
-2.46411
-4.63001e-06
2.92753
-0.46342
2.76603
0.537986
-4.73028e-06
-0.00169411
0.185333
-0.71273
-4.54976e-06
-1.49219e-05
2.91357
-0.816779
0.185335
0.120806
0.12085
-0.712776
-0.641843
-0.64175
-16.3822
-0.000748849
-9.78637
-9.59335
-9.78637
-9.59335
5.72437
4.42004
5.72436
4.42004
-3.19143
12.2768
3.20145
-3.58175e-05
-0.312047
1.45481e-05
12.7469
0.763229
-4.36612e-05
-0.182424
-0.311971
-0.182395
-12.5212
0.644212
-12.6231
2.03362e-05
11.9624
-1.83264
-6.19302e-05
0.602498
0.644225
0.602454
41.2629
-15.4402
-0.00059795
4.18525
5.29013
4.18525
5.29011
-11.406
-10.9804
-11.406
-10.9804
-11.4729
-0.000719916
48.4191
-0.00026599
-2.92854
-2.37963
-2.92871
-2.37963
47.7811
-0.000340264
-0.53531
0.488057
-0.535144
0.48785
45.3634
-0.00044792
1.39872
1.45462
1.3987
1.45461
41.6414
-0.000578068
-0.000698869
3.30742e-05
-2.4641
-3.60299e-05
2.92752
-0.463419
-2.70097
3.01154
2.45487
-6.30204e-06
1.32026e-05
-3.30232
2.76603
0.53799
-1.61527e-05
-0.00169888
0.185334
-0.712729
3.40872e-05
-5.1536e-05
2.91356
-0.816781
0.185336
0.120809
0.12085
-0.712775
-0.641842
-0.641749
-16.3824
-0.00149173
-9.78633
-9.59332
-9.78632
-9.5935
5.72434
4.42003
5.7243
4.42014
10.9005
-0.00028553
-7.01319
-7.01317
10.3983
10.9003
10.3985
-7.06549
11.9272
6.03882
-6.88926e-05
-3.19143
5.9552e-05
-12.2868
12.277
3.20125
-8.49683e-05
-0.312047
8.08417e-05
12.7469
0.763249
-0.000110819
-0.182429
-0.311977
-0.182397
-12.5212
0.644205
-12.6233
0.00010911
11.9623
-1.83242
-0.000153765
0.602586
0.644219
0.602459
41.2636
-15.4406
-0.0011886
4.18525
5.29014
4.18521
5.29022
-11.4061
-10.9804
-11.4061
-10.9806
-11.4726
-0.00143174
46.8055
-0.000358956
-4.81749
-4.32107
-4.81754
-4.32127
48.4197
-0.000447359
-2.92893
-2.37961
-2.92895
-2.37946
47.782
-0.000611004
-0.535131
0.487831
-0.53533
0.488046
45.3638
-0.000835882
1.39868
1.45482
1.39867
1.45476
41.6416
-0.00113716
-0.00138981
6.65643e-05
-2.46408
-6.95933e-05
2.9275
-0.463417
2.2005e-05
-2.70097
3.01153
2.45486
-1.55486e-05
2.32899e-05
-3.30232
2.76603
0.537989
-2.4884e-05
-0.0016997
0.185332
-0.712725
6.88452e-05
-8.7373e-05
2.91355
-0.816771
0.185334
0.120809
0.120847
-0.71277
-0.641838
-0.641746
-16.3826
-0.00228348
-9.78626
-9.59359
-9.7864
-9.59359
5.72426
4.42011
5.72419
4.42021
10.9003
-0.000378539
-7.0132
-7.01319
10.3988
10.9005
10.399
-7.06584
9.29343e-05
11.9274
6.03878
-0.000112815
-3.19144
0.000107752
-12.2871
12.2769
3.20166
-0.000126657
-0.312054
0.000140235
12.7466
0.763244
-0.000166613
-0.182313
-0.311975
-0.182281
-12.5212
0.644202
-12.6235
0.00020007
11.9623
-1.83238
-0.00023559
0.602587
0.644206
0.602544
41.2644
-15.4411
-0.00177453
4.18538
5.29025
4.18524
5.29007
-11.4061
-10.9807
-11.406
-10.9809
-11.473
-0.00218386
46.8074
-0.000469737
-4.81772
-4.32134
-4.81787
-4.32132
48.4215
-0.000587731
-2.92894
-2.37947
-2.92894
-2.37962
47.7833
-0.000838006
-0.535334
0.487996
-0.535336
0.488016
45.3652
-0.0012005
1.39864
1.45482
1.39863
1.45487
41.643
-0.00168671
-0.00210726
0.000100157
-2.46405
-0.000102962
-0.463412
2.94976e-05
-2.70105
3.01153
2.45494
-1.96405e-05
3.14807e-05
-3.30231
2.76602
0.537991
-3.25337e-05
-0.00170045
0.185325
-0.712768
0.00011027
-0.000123933
2.91353
-0.816699
0.185326
0.120808
0.120841
-0.712766
-0.641788
-0.641792
-16.3833
-0.00313846
-9.78646
-9.59351
-9.78659
-9.59385
5.72412
4.42031
5.72416
4.42028
10.9006
-0.000506029
-7.0132
-7.01346
10.3992
10.901
10.3998
-7.06599
0.000126013
11.9278
6.03884
-0.000135365
-3.19174
0.000144849
-12.2871
12.2772
3.20168
-0.00015734
-0.312049
0.000192208
12.747
0.763242
-0.000215674
-0.182314
-0.311974
-0.182282
-12.5216
0.64433
-12.6236
0.00027259
11.9624
-1.83262
-0.000329962
0.602596
0.644348
0.602583
41.2666
-15.4423
-0.00230827
4.18507
5.29033
4.18514
5.29045
-11.4059
-10.981
-11.4063
-10.9816
-11.4735
-0.00297501
46.8104
-0.000563695
-4.81809
-4.32129
-4.81855
-4.32124
48.4244
-0.000657771
-2.92894
-2.37967
-2.92934
-2.37943
47.7865
-0.000966479
-0.535551
0.487975
-0.53577
0.488152
45.3683
-0.00148896
1.39883
1.45494
1.39873
1.45515
41.6447
-0.00220835
-0.00285364
0.000136582
-2.46399
-0.000140302
-0.463407
3.76834e-05
-2.70101
3.01155
2.45492
-2.45395e-05
3.61338e-05
-3.3023
2.76601
0.537996
-3.82355e-05
-0.00170216
0.185324
-0.712754
0.000120949
-0.000139676
2.91356
-0.816784
0.185325
0.120809
0.120841
-0.712751
-0.641776
-0.641779
-16.3851
-0.0041522
-9.7865
-9.59389
-9.7867
-9.59459
5.7241
4.42033
5.72398
4.42068
10.9013
-0.000646491
-7.01381
-7.01395
10.4002
10.9017
10.4012
-7.06582
0.000147456
11.9279
6.03923
-0.000171022
-3.19151
0.000162318
-12.2879
12.2773
3.2021
-0.000159362
-0.312043
0.000225652
12.7475
0.76324
-0.000215101
-0.182323
-0.312079
-0.182284
-12.522
0.644181
-12.6238
0.00036013
11.9627
-1.83244
-0.000355019
0.60257
0.644175
0.602609
41.2709
-15.445
-0.00292071
4.18546
5.29058
4.1853
5.29097
-11.4066
-10.9817
-11.4069
-10.9824
-11.4746
-0.00388905
46.8159
-0.000587791
-4.81878
-4.32143
-4.81956
-4.32139
48.4292
-0.00055407
-2.9296
-2.37943
-2.92996
-2.37939
47.7914
-0.000860603
-0.535734
0.488057
-0.535987
0.48825
45.3733
-0.00159286
1.39865
1.45553
1.39853
1.45582
41.6478
-0.00278808
-0.00368522
0.000177004
-2.46393
-0.463393
3.31647e-05
-3.3023
2.76601
0.537994
-2.95164e-05
-0.00170221
0.185321
-0.712736
0.000153443
-0.000163282
2.91348
-0.816772
0.185322
0.120809
0.120838
-0.712733
-0.641761
-0.641763
-16.3894
-0.00580034
-9.78685
-9.59493
-9.78714
-9.59615
5.72414
4.42096
5.72373
4.42162
10.9023
-0.000949458
10.4022
10.9032
10.4039
0.000186649
11.9294
6.03937
-0.000211896
-3.19217
0.000146234
-12.2888
12.2784
3.2025
-0.000116202
-0.312026
0.000186211
12.7482
0.763428
-0.000113266
-0.18245
-0.31207
-0.182407
-12.5228
0.64414
-12.6246
0.000354353
11.9635
-1.8325
-0.000294883
0.602647
0.64405
0.602695
41.2785
-15.4503
-0.00375045
4.18563
5.2917
4.18588
5.2921
-11.4072
-10.983
-11.4081
-10.9845
-11.4773
-0.00524146
46.8249
-0.000515244
-4.82027
-4.32178
-4.8214
-4.32205
48.4378
-0.000108423
-2.93047
-2.37933
-2.93123
-2.37932
47.7994
-0.000185767
-0.536155
0.488383
-0.536614
0.488787
45.3809
-0.00125846
1.39865
1.4564
1.39859
1.45734
41.6525
-0.00368134
-0.0048618
1.67398e-05
-3.30233
2.76613
0.537906
-1.00639e-05
-0.00170787
0.185311
-0.712707
0.000158613
-0.000161223
2.91339
-0.816815
0.185313
0.120849
0.120836
-0.712704
-0.641738
-0.641738
-16.3985
-0.00994099
-9.78756
-9.59711
-9.78865
-9.60071
5.72402
4.42248
5.72499
4.42461
10.9045
-0.0015957
10.4053
10.9065
10.4076
0.000242989
11.9317
6.04051
-0.00029434
-3.19333
5.82678e-05
-12.2911
12.2809
3.20346
3.34634e-05
-0.312112
1.35005e-06
12.7499
0.763519
0.000232592
-0.182321
-0.312041
-0.182299
-12.5249
0.644156
-12.6264
0.000185972
11.9651
-1.83291
0.000142848
0.602743
0.644134
0.60279
41.2955
-15.4643
-0.00662233
4.1864
5.29295
4.18798
5.2967
-11.4089
-10.9855
-11.4108
-10.987
-11.4784
-0.00824218
46.8372
-0.000277163
-4.82246
-4.32284
-4.82435
-4.32387
48.4511
0.000922333
-2.93206
-2.37986
-2.93358
-2.38039
47.8114
0.0015683
-0.536636
0.489356
-0.537219
0.490462
45.3907
0.000341149
1.39886
1.45884
1.39893
1.46025
41.657
-0.00661709
-0.00723322
-3.10656e-05
-3.30266
2.76631
0.538044
4.62208e-05
-0.00171432
0.185204
-0.712655
8.19212e-05
-0.000154369
2.91342
-0.816614
0.185193
0.120843
0.120871
-0.71265
-0.641747
-0.641791
-16.4167
-0.0270002
-9.79094
-9.60297
-9.79464
-9.61038
5.72405
4.42597
5.73444
4.43224
10.9095
10.41
10.9121
10.4111
0.00038669
11.9377
6.0427
-0.000218334
-3.19699
-0.000177249
-12.2968
12.2864
3.20715
0.000442725
-0.312334
-0.000579244
12.7541
0.763877
0.00100926
-0.182193
-0.312323
-0.182058
-12.5295
0.644146
-12.631
-0.000751252
11.969
-1.83361
0.00207188
0.603071
0.643958
0.603026
41.3501
-15.516
-0.00990373
4.1835
5.28687
4.20148
5.31025
-11.4145
-10.9914
-11.4164
-10.9906
-11.4596
-0.0172077
46.8457
-4.82584
-4.32591
-4.8285
-4.32957
48.4665
0.00283403
-2.93613
-2.38144
-2.9409
-2.38348
47.8215
0.00546488
-0.537721
0.49092
-0.535906
0.492058
45.3938
0.00432018
1.40065
1.45883
1.40197
1.47963
41.6634
-0.0188402
-0.0150532
-0.000157876
2.7666
0.53859
0.000198504
-0.0016629
0.185156
-0.712663
-0.00136371
0.00172737
2.91331
-0.816316
0.185126
0.120744
0.120952
-0.712692
-0.641958
-0.64203
-16.9428
-9.79399
-9.60964
-9.72625
-9.64093
5.79739
4.38735
6.21713
4.47692
-3.21314
-0.00101877
12.2974
3.22123
0.00407329
-0.312914
-0.00225118
12.7617
0.768341
0.00419712
-0.182341
-0.313308
-0.18366
-12.5398
0.627841
-12.6353
-0.00629361
11.9364
-1.68999
0.00712272
0.586902
0.605873
0.567476
40.3498
-14.5283
4.16443
5.28039
4.15095
5.31831
-11.4216
-10.9767
-11.2706
-10.9877
-13.1133
48.4419
-2.93833
-2.39231
-2.93862
-2.43454
47.6955
-0.532343
0.434167
-0.511485
0.201927
44.9689
1.32005
1.63631
0.237243
2.46631
41.7952
0.25996
-0.705938
-0.00475195
2.90154
-1.25736
0.25911
0.110233
0.0737253
-0.706143
-0.468196
-0.463244
-0.300905
12.7885
-0.179474
-0.284588
-0.142814
-0.00305926
0.300697
-12.6817
-0.0104586
12.1514
-0.109634
0.366738
-0.00911144
0.720763
-0.31455
0.597923
-1.00413
2.79267e-05
3.71923e-05
0.720781
-0.314561
-3.87634e-05
0.597927
-1.00414
0.720782
-0.314561
0.597931
-1.00415
3.40564e-05
2.66501e-05
0.720791
-0.314569
-2.81566e-05
0.59794
-1.00416
0.720792
-0.314567
0.59794
-1.00416
2.46488e-05
1.73217e-05
0.720799
-0.314572
-1.92146e-05
0.597946
-1.00417
0.720799
-0.314571
0.597946
-1.00417
1.54219e-05
1.84881e-06
0.720803
-0.314572
-6.36478e-06
0.597949
-1.00418
0.720806
-0.314567
0.597943
-1.00418
-1.23255e-06
2.23246e-06
0.720804
-0.314572
-4.89764e-06
0.597948
-1.00418
0.720804
-0.314574
0.597951
-1.00418
-7.11536e-07
-9.81687e-06
0.720803
-0.314574
7.617e-06
0.597951
-1.00418
0.720803
-0.314575
0.597951
-1.00418
-1.14719e-05
-1.98234e-05
0.7208
-0.314571
1.74629e-05
0.597947
-1.00417
0.720799
-0.314572
0.597946
-1.00417
-2.12025e-05
-3.53478e-05
0.720793
-0.314565
3.02371e-05
0.59794
-1.00416
0.720795
-0.314563
0.597933
-1.00416
-3.77187e-05
-3.33161e-05
0.720783
-0.31456
3.04402e-05
0.597929
-1.00415
0.720781
-0.314563
0.597931
-1.00415
-3.54741e-05
-4.21002e-05
0.720762
-0.314553
4.00033e-05
0.597922
-1.00413
0.720759
-0.314557
0.597922
-1.00412
-4.22927e-05
-4.06698e-05
0.720735
-0.314543
3.9507e-05
0.597899
-1.00409
0.72073
-0.314546
0.597897
-1.00408
-3.93907e-05
-1.92403e-05
0.720727
-0.314562
2.03527e-05
0.597852
-1.00402
0.720722
-0.314549
0.597833
-1.004
-2.0343e-05
0.000458102
0.720586
-0.314693
-0.000310006
0.597842
-1.00388
0.720593
-0.314724
0.597818
-1.00387
0.000635868
-0.00245403
0.709017
-0.4666
0.00417273
0.782321
-1.02646
0.702544
-0.533299
0.863967
-1.03622
0.000554104
0.223582
2.94545e-05
0.682501
3.27959e-05
-0.185322
-3.53003e-05
0.223592
0.682512
-0.706613
2.38986e-05
-0.320672
3.10628e-05
0.712754
-3.22089e-05
-0.706576
-0.320738
7.48002e-05
-3.253
-0.64419
-7.79704e-05
0.742109
3.15509
0.000113636
2.8027
-0.94604
-7.58064e-05
1.02519
-2.88189
0.223594
2.99277e-05
0.682516
2.349e-05
-0.185328
-2.5969e-05
0.223594
0.682528
-0.706578
2.72287e-05
-0.320735
-3.25302
0.742101
3.1551
6.81148e-05
2.80282
-0.946104
1.02508
-2.88181
0.000131797
2.25324e-05
0.712765
-2.35117e-05
-0.706587
-0.320746
6.91443e-05
-3.25293
-0.644305
-7.61426e-05
0.742112
3.15513
9.18291e-05
2.80283
-0.946263
-5.49218e-05
1.02513
-2.88174
0.223595
2.12842e-05
0.68253
1.52715e-05
-0.185331
-1.78663e-05
0.223597
0.682535
8.46225e-05
-1.9925
-8.19149e-05
2.34946
-2.67895
-0.706588
1.92862e-05
-0.320742
-3.25294
0.742111
3.15504
5.14313e-05
2.80285
-0.946214
1.02511
-2.88176
0.000101734
1.46219e-05
0.712725
-1.66578e-05
-0.706594
-0.320701
4.47136e-05
-3.25307
-0.644202
-5.84167e-05
0.742225
3.15505
5.95053e-05
2.80267
-0.946078
-2.83245e-05
1.02514
-2.88177
0.223597
1.28038e-05
0.682537
-1.99247
2.322
2.34946
-2.67896
6.88973e-05
3.95313e-06
-0.185331
-7.1184e-06
0.223597
0.682541
3.99676e-05
-1.99252
2.322
-3.73366e-05
2.34949
-2.67898
-0.706595
1.15422e-05
-0.320698
-3.25307
0.742227
3.15506
3.08794e-05
2.80268
-0.946053
1.02513
-2.88178
7.56762e-05
2.39687e-06
0.712729
-6.07918e-06
-0.706598
-0.320699
2.75497e-05
-3.25308
-0.644219
-4.35704e-05
0.742243
3.15506
2.26591e-05
2.80279
-0.946072
6.20958e-06
1.02514
-2.88188
0.223595
9.26401e-07
0.682542
-1.9925
2.32201
2.34948
-2.67898
3.23752e-05
1.27548e-06
-0.185331
-4.97719e-06
0.223597
0.682541
-1.63107e-06
-1.99251
2.32201
-9.81962e-07
2.3495
-2.67898
-0.7066
-1.73793e-06
-0.320693
-3.25309
0.742267
3.15507
1.10789e-05
2.8028
-0.946041
1.0251
-2.88188
4.49573e-05
1.57468e-06
0.71273
-5.20437e-06
-0.706599
-0.320699
-6.34891e-06
-3.25309
-0.644221
-3.42685e-06
0.742246
3.15507
1.65316e-06
2.80279
-0.94606
1.93214e-05
1.02513
-2.88189
0.223598
-1.13785e-06
0.682541
-1.99251
2.32201
2.3495
-2.67898
-4.72756e-06
-8.72122e-06
-0.185333
5.78706e-06
0.223598
0.68254
-4.4816e-05
-1.9925
2.32201
3.61806e-05
2.34948
-2.67898
-0.706599
-1.34239e-06
-0.320702
-3.25309
0.742235
3.15507
-2.06365e-05
2.80279
-0.94607
1.02514
-2.88189
2.64521e-05
-8.3551e-06
0.712729
5.18275e-06
-0.706599
-0.320701
-2.73019e-05
-3.25308
-0.644207
1.22836e-05
0.742231
3.15507
-3.48869e-05
2.80279
-0.946065
5.53529e-05
1.02514
-2.88189
0.223599
-1.07233e-05
0.682539
-1.99252
2.322
2.34949
-2.67897
-4.21997e-05
-1.75298e-05
-0.185332
1.46091e-05
0.223597
0.682537
-8.96712e-05
-1.99247
2.322
7.46484e-05
2.34946
-2.67897
-0.706598
-1.02312e-05
-0.320703
-3.25308
0.74223
3.15507
-4.22139e-05
2.80279
-0.946085
1.02515
-2.88188
-4.24233e-06
-1.67182e-05
0.712726
1.31791e-05
-0.706595
-0.320698
-4.98513e-05
-3.25307
-0.644201
3.42705e-05
0.742226
3.15506
-6.67377e-05
2.80268
-0.946053
8.28545e-05
1.02513
-2.88178
0.223597
-1.96555e-05
0.682535
-1.99251
2.32198
2.34948
-2.67896
-8.06503e-05
-2.88474e-05
-0.185328
2.53301e-05
0.223594
0.682532
-0.000132927
-1.99244
2.32198
0.000114654
2.34942
-2.67894
-0.706594
-1.82843e-05
-0.320701
-3.25307
0.742226
3.15506
-6.18592e-05
2.80267
-0.946078
1.02514
-2.88177
-3.57623e-05
-2.90405e-05
0.712767
2.38399e-05
-0.706589
-0.320738
-6.9512e-05
-3.25295
-0.644201
5.05627e-05
0.742125
3.15503
-0.000105406
2.80285
-0.946201
0.000113096
1.0251
-2.88175
0.223591
-3.14784e-05
0.68253
-1.99241
2.32195
2.34947
-2.67902
-0.000120385
-3.05491e-05
-0.185323
2.64207e-05
0.223593
0.682516
-0.000179336
-1.9923
2.32193
0.00015283
2.34939
-2.67899
-0.706589
-3.1005e-05
-0.320739
-3.25294
0.742148
3.15513
-7.8136e-05
2.80284
-0.946238
1.02509
-2.88173
-6.67494e-05
-2.84028e-05
0.712757
2.38256e-05
-0.706579
-0.320733
-8.93901e-05
-3.25302
-0.644191
8.69345e-05
0.742111
3.1551
-0.000112108
2.80282
-0.946092
0.000126005
1.02507
-2.88181
0.223594
-3.21454e-05
0.682513
-1.99239
2.32189
2.34945
-2.67897
-0.000152507
-3.85339e-05
-0.185319
3.53276e-05
0.223584
0.6825
-0.000232858
-1.9923
2.32194
0.000196203
2.34932
-2.67891
-0.706576
-2.9109e-05
-0.32074
-3.25301
0.742098
3.15509
-9.68566e-05
2.8027
-0.946048
1.0252
-2.88189
-7.13516e-05
-3.57696e-05
0.71274
3.21006e-05
-0.706614
-0.320676
-8.77517e-05
-3.25298
-0.644255
8.05416e-05
0.742077
3.15516
-0.000136971
2.80286
-0.946234
0.0001433
1.02513
-2.88177
0.223585
-3.90034e-05
0.682495
-1.99246
2.32188
2.34941
-2.67888
-0.000180658
-3.91919e-05
-0.18531
3.65463e-05
0.223579
0.682469
-0.000298374
-1.99228
2.32172
0.000224435
2.34947
-2.67883
-0.70661
-3.45125e-05
-0.320684
-3.25307
0.742072
3.15514
-9.78519e-05
2.80291
-0.946322
1.02509
-2.88173
-8.09943e-05
-3.45471e-05
0.712714
3.15657e-05
-0.706638
-0.320616
-5.10599e-05
-3.25312
-0.64412
5.26374e-05
0.742158
3.15508
-0.000120254
2.80307
-0.946313
0.000131976
1.0251
-2.88187
0.223579
-3.88665e-05
0.682462
-1.99246
2.32163
2.34958
-2.67877
-0.00027093
-2.12315e-05
-0.18524
2.29992e-05
0.223555
0.682412
-0.000422088
-1.99233
2.32192
0.000334424
2.34934
-2.67884
-0.706632
-3.19783e-05
-0.320623
-3.2531
0.742066
3.15516
-2.20959e-05
2.80309
-0.946443
1.02517
-2.88191
-2.94348e-05
-1.38949e-05
0.712663
1.54831e-05
-0.706586
-0.320641
0.000151116
-3.25359
-0.644062
-9.21577e-05
0.742217
3.15536
6.09332e-05
2.80346
-0.946826
1.82156e-05
1.02535
-2.88206
0.223537
-2.80226e-05
0.682395
-1.99213
2.3219
2.34923
-2.67876
-0.000663191
0.00035421
-0.185285
-0.000240534
0.223557
0.682199
-0.00242902
-1.99581
2.32376
0.0013295
2.3518
-2.67864
-0.706579
-1.47311e-05
-0.320623
-3.25359
0.742191
3.15543
0.000268902
2.80374
-0.94703
1.02535
-2.88207
7.74923e-05
0.000371311
0.712655
-0.000248214
-0.706571
-0.320899
0.00360877
-3.25519
-0.641142
-0.00116607
0.738621
3.15527
0.00122831
2.80487
-0.950659
-0.000600705
1.02788
-2.88272
0.223487
0.000445516
0.682171
-1.99895
2.32415
2.35691
-2.67836
-0.00617992
0.00700127
-0.23792
-0.008079
0.270013
0.678002
-2.13912
2.33398
0.0329854
2.53914
-2.70735
-0.706543
0.000499485
-0.320973
-3.25698
0.72614
3.15527
0.00701724
2.80631
-0.953727
1.03055
-2.88372
0.00181469
0.00471955
0.710586
-0.00493342
-0.712735
-0.464237
0.0301508
-3.26483
-0.389015
-0.0284628
0.478776
3.17338
-0.0322387
2.79626
-1.13693
0.0375986
1.24618
-2.91087
0.288943
0.00426862
0.676293
-0.0223853
-0.369959
3.25268
0.051453
3.26863
0.0198305
-0.101576
0.134035
-3.29218
-0.0287396
-0.713718
0.00223889
-0.523039
0.393513
3.1823
0.0236674
2.77181
-1.2808
1.41194
-2.9344
-0.000781601
-1.16464e-05
0.955036
0.955089
-1.38137
-0.528651
4.63629e-05
0.720815
-0.314588
-3.48145e-05
0.597927
-1.00416
7.81962e-05
-1.38072
0.955152
0.95515
-0.52944
0.720802
-0.314596
4.4589e-05
0.597947
-1.00415
-4.80798e-05
3.61232e-05
0.95505
0.955095
-1.38147
-0.528648
-1.38144
0.955093
0.955097
-0.528662
2.98546e-05
0.955052
0.955105
-1.38149
-0.52865
3.10447e-05
0.720817
-0.314612
-3.23642e-05
0.597946
-1.00415
2.96569e-05
-1.38156
0.955104
0.955101
-0.52864
0.720809
-0.314611
2.91695e-05
0.597957
-1.00415
-3.14853e-05
2.62457e-05
0.955067
0.955112
-1.38152
-0.528664
-1.38156
0.955105
0.95511
-0.528659
2.07345e-05
0.955067
0.955118
-1.38152
-0.528668
2.17473e-05
0.720826
-0.314616
-2.32139e-05
0.597955
-1.00416
2.16652e-05
-1.38157
0.955117
0.955115
-0.528668
0.720817
-0.314615
1.99174e-05
0.597965
-1.00416
-2.31244e-05
1.74016e-05
0.955075
0.955122
-1.38153
-0.528672
-1.38158
0.955116
0.955119
-0.528669
1.14853e-05
0.955075
0.955125
-1.38153
-0.528673
1.14213e-05
0.720831
-0.314618
-1.33053e-05
0.59796
-1.00417
1.1831e-05
-1.38158
0.955123
0.955122
-0.528671
0.720822
-0.314617
9.88307e-06
0.597967
-1.00417
-1.15414e-05
-3.54235e-06
0.955079
0.955126
-1.38151
-0.528658
-1.38158
0.955122
0.955124
-0.528669
-4.68456e-05
0.955083
0.955135
-1.38142
-0.528688
1.48984e-05
0.720847
-0.314597
-2.92142e-06
0.597951
-1.00421
5.26151e-05
-1.38068
0.955199
0.955202
-0.529574
0.720831
-0.31461
1.2432e-05
0.597973
-1.00419
-1.69451e-05
2.42249e-06
0.955081
0.95513
-1.38152
-0.528673
-1.38148
0.955131
0.955131
-0.528692
-5.29785e-06
0.955081
0.95513
-1.38153
-0.528671
-4.76357e-06
0.720834
-0.314619
2.89997e-06
0.597961
-1.00417
-5.01294e-06
-1.38159
0.955126
0.955128
-0.528673
0.720825
-0.31462
-6.41429e-06
0.597972
-1.00417
4.14745e-06
-1.00142e-05
0.95508
0.95513
-1.38154
-0.528682
-1.38159
0.955126
0.955127
-0.528677
-1.58521e-05
0.955081
0.955128
-1.38154
-0.528683
-1.50992e-05
0.720832
-0.314619
1.32611e-05
0.597961
-1.00417
-1.50556e-05
-1.38159
0.955123
0.955126
-0.528681
0.720822
-0.31462
-1.63196e-05
0.59797
-1.00417
1.37485e-05
-1.96642e-05
0.955075
0.955126
-1.38153
-0.528679
-1.38159
0.955123
0.955123
-0.528679
-2.54741e-05
0.955076
0.955122
-1.38153
-0.528678
-2.5631e-05
0.720826
-0.314615
2.30144e-05
0.597956
-1.00416
-2.51555e-05
-1.38157
0.955116
0.95512
-0.528672
0.720817
-0.314615
-2.68689e-05
0.597962
-1.00416
2.53882e-05
-4.05132e-05
0.955065
0.955117
-1.3815
-0.528652
-1.38157
0.955116
0.955114
-0.528666
-8.38932e-05
0.95507
0.955119
-1.38139
-0.528681
-2.09487e-05
0.720832
-0.314588
3.31364e-05
0.597937
-1.00419
1.78604e-05
-1.38063
0.95518
0.955187
-0.529582
0.720815
-0.314602
-2.28046e-05
0.597959
-1.00417
1.79219e-05
-3.21694e-05
0.955053
0.955106
-1.38148
-0.52866
-1.38144
0.955111
0.955107
-0.528681
-3.83382e-05
0.955051
0.955096
-1.38148
-0.528653
-3.8593e-05
0.720806
-0.314604
3.70929e-05
0.597936
-1.00414
-3.72912e-05
-1.38154
0.955089
0.955095
-0.52865
0.720794
-0.314606
-3.92317e-05
0.597945
-1.00413
3.47531e-05
-3.87657e-05
0.955035
0.955086
-1.38147
-0.528657
-1.38153
0.955089
0.955086
-0.528655
-4.19611e-05
0.955033
0.955074
-1.38146
-0.528653
-4.16587e-05
0.720785
-0.314596
4.14485e-05
0.597921
-1.00411
-3.68383e-05
-1.38151
0.955066
0.955073
-0.528647
0.720773
-0.314597
-4.09064e-05
0.597927
-1.0041
3.37687e-05
-3.13764e-05
0.955049
0.955054
-1.38148
-0.528636
-1.3815
0.955063
0.955059
-0.528642
-2.5314e-05
0.955042
0.955036
-1.38147
-0.528626
-3.26681e-05
0.720743
-0.314581
3.46209e-05
0.597895
-1.00406
-1.59311e-05
-1.38145
0.955021
0.955027
-0.528615
0.720726
-0.314582
-2.74308e-05
0.597898
-1.00405
4.82611e-06
3.78416e-07
0.954985
0.954988
-1.38138
-0.528578
-1.38142
0.955011
0.955006
-0.528604
-1.09186e-05
0.954968
0.954966
-1.38127
-0.528588
3.57239e-05
0.720704
-0.314589
2.36191e-06
0.597824
-1.00397
0.000163215
-1.38079
0.954978
0.954992
-0.52913
0.720698
-0.314654
0.000103414
0.597869
-1.00398
-0.000424574
0.00135954
0.954529
0.954572
-1.38911
-0.520923
-1.383
0.95486
0.954846
-0.526914
0.00396149
0.95362
0.953409
-1.41411
-0.495524
0.00145245
0.720015
-0.316341
-0.00123316
0.598771
-1.00266
0.0088151
-1.5006
0.949765
0.949788
-0.403811
0.719017
-0.321135
0.000512195
0.603049
-0.999992
-0.0504421
0.00651717
0.916575
0.915201
-1.82244
0.0345845
-1.71775
0.924578
0.926195
-0.17465
0.843792
0.848879
-1.68365
0.185322
0.120808
0.12084
-0.712751
-0.641776
-0.641778
-0.000145915
2.91356
-0.816777
0.000551669
0.891171
0.891387
1.16294
1.16266
-2.80286
-2.75769
-2.75774
0.0004542
0.891189
0.891428
1.16298
1.16262
-2.7576
-2.80298
-2.75757
0.18533
0.12081
0.120849
-0.712762
-0.641786
-0.641786
-0.000108239
2.91352
-0.816722
0.00039526
0.89122
0.89143
1.16296
1.16268
-2.803
-2.75763
-2.75759
0.000335493
0.891208
0.891443
1.16292
1.16265
-2.75764
-2.80292
-2.75761
0.185333
0.120808
0.12085
-0.712771
-0.641838
-0.641745
-7.65935e-05
2.91355
-0.816775
-6.8948
0.000306594
1.99257
2.3402
2.34021
-2.92119
-2.92118
-2.85745
-2.85705
11.1981
0.000262355
0.891215
0.891436
1.16291
1.1626
-2.80284
-2.75766
-2.75762
0.000302627
-6.89478
0.00021281
2.34021
1.99261
2.34019
-2.92121
-2.9212
-2.85746
-2.85706
11.1979
0.000173269
0.891214
0.891446
1.16291
1.16258
-2.75767
-2.80284
-2.75763
0.000199397
0.185333
0.120805
0.120851
-0.712775
-0.641843
-0.641748
-3.82391e-05
2.91357
-0.816775
-6.89484
0.000146698
1.99261
2.34021
2.34019
-2.92122
-2.92121
-2.85747
-2.85707
11.198
0.000108696
0.891219
0.891432
1.16291
1.1626
-2.80285
-2.75758
-2.75764
0.0001495
-6.89484
6.80585e-05
2.34023
1.99262
2.34021
-2.92123
-2.92122
-2.85748
-2.85708
11.198
6.52477e-05
0.891201
0.891426
1.1629
1.16259
-2.75759
-2.80286
-2.75765
6.54898e-05
0.185332
0.120805
0.12085
-0.712777
-0.641844
-0.64175
-2.46638e-05
2.91357
-0.816771
-6.89487
-5.25894e-06
1.99262
2.34022
2.34021
-2.92123
-2.92122
-2.85748
-2.85708
11.198
5.59699e-06
0.891216
0.891419
1.1629
1.1626
-2.80286
-2.75759
-2.75765
-5.46592e-06
-6.89487
-8.20519e-05
2.34022
1.99262
2.3402
-2.92122
-2.92122
-2.85747
-2.85708
11.198
-6.68936e-05
0.891221
0.891454
1.16292
1.1626
-2.75759
-2.80286
-2.75764
-8.02035e-05
0.185334
0.120805
0.120855
-0.712776
-0.641843
-0.641748
1.70426e-05
2.91357
-0.816782
-6.89485
-0.000168405
1.99262
2.34022
2.3402
-2.92122
-2.92121
-2.85747
-2.85707
11.198
-0.000142252
0.891228
0.891438
1.16292
1.1626
-2.80286
-2.75758
-2.75764
-0.000171682
-6.89484
-0.000238037
2.3402
1.99261
2.34019
-2.92121
-2.9212
-2.85746
-2.85707
11.198
-0.00020977
0.891224
0.891454
1.16291
1.16261
-2.75758
-2.80285
-2.75764
-0.0002237
0.185333
0.120803
0.120856
-0.712773
-0.64184
-0.641745
5.19294e-05
2.91355
-0.816777
-6.89477
-0.00033657
1.99261
2.34021
2.34019
-2.9212
-2.9212
-2.85746
-2.85706
11.1979
-0.000291042
0.891221
0.891436
1.16292
1.16259
-2.80284
-2.75767
-2.75763
-0.000330419
-6.89478
-0.000399406
2.34018
1.9926
2.34016
-2.9212
-2.92119
-2.85745
-2.85705
11.1981
-0.000374008
0.891209
0.891447
1.1629
1.1626
-2.75766
-2.80284
-2.75762
-0.000359709
0.18533
0.120797
0.120854
-0.712766
-0.641789
-0.641739
9.05003e-05
2.91353
-0.816763
-6.89474
-0.000508462
1.99259
2.34018
2.34017
-2.92118
-2.92118
-2.85744
-2.85714
11.1981
-0.000434566
0.891205
0.891423
1.16291
1.16264
-2.80292
-2.75764
-2.75761
-0.000494647
-6.8948
-0.000551235
2.34023
1.99248
2.34021
-2.92116
-2.92115
-2.85752
-2.85712
11.198
-0.000461932
0.891193
0.891416
1.16294
1.16266
-2.75764
-2.80301
-2.7576
-0.000498294
0.185324
0.120796
0.120853
-0.712756
-0.641781
-0.641779
0.000101025
2.91349
-0.816693
-6.89481
-0.000669165
1.99247
2.34023
2.34022
-2.92113
-2.92113
-2.8575
-2.85711
11.1981
-0.000546448
0.891183
0.891391
1.16296
1.16262
-2.80299
-2.75761
-2.75757
-0.000645055
-6.89496
-0.000715255
2.34018
1.99242
2.34024
-2.9211
-2.92119
-2.85737
-2.85707
11.1983
-0.00061238
0.891174
0.89142
1.16295
1.16266
-2.75769
-2.80286
-2.75774
-0.000610677
0.18532
0.120793
0.120852
-0.712741
-0.641768
-0.641766
0.000135422
2.91351
-0.816762
-6.89482
-0.000858274
1.99241
2.34018
2.34025
-2.92106
-2.92116
-2.85743
-2.85723
11.1982
-0.00071528
0.891149
0.891372
1.16305
1.16269
-2.80293
-2.75764
-2.75771
-0.000782335
-6.89522
-0.000911161
2.34011
1.99244
2.34019
-2.92101
-2.9211
-2.85748
-2.85719
11.1985
-0.000728644
0.891265
0.891502
1.16294
1.16265
-2.75762
-2.80307
-2.75766
-0.00069479
0.185314
0.120833
0.120852
-0.712716
-0.641747
-0.641745
0.000147665
2.91344
-0.816819
-6.89512
-0.00107824
1.99237
2.34018
2.34024
-2.92113
-2.92114
-2.85743
-2.85722
11.199
-0.000845376
0.891109
0.891313
1.16304
1.16276
-2.80304
-2.75754
-2.75762
-0.000846598
-6.89535
-0.00122614
2.34006
1.99236
2.34018
-2.92105
-2.92112
-2.85773
-2.85724
11.1996
-0.000933253
0.891188
0.891406
1.16319
1.16281
-2.7576
-2.80333
-2.75772
-0.000739679
0.185251
0.12082
0.120842
-0.712664
-0.641748
-0.641748
0.00010948
2.91348
-0.816839
-6.89609
-0.00145081
1.9924
2.34017
2.34031
-2.92115
-2.92108
-2.85772
-2.8576
11.2008
-0.000453433
0.89117
0.891285
1.16339
1.16324
-2.80334
-2.75789
-2.7577
-4.15459e-05
-6.89285
-0.00484915
2.33936
1.99241
2.33948
-2.92114
-2.92122
-2.85821
-2.85751
11.2032
-0.00269167
0.890577
0.890914
1.1631
1.1626
-2.75822
-2.80434
-2.75836
-0.00579986
0.185344
0.121057
0.120976
-0.712605
-0.641872
-0.6418
-0.000501851
2.91324
-0.817829
-6.90902
-0.00441049
1.99411
2.34065
2.341
-2.92091
-2.92068
-2.85785
-2.8582
11.2031
0.00794228
0.892199
0.892422
1.16489
1.16432
-2.80426
-2.7588
-2.75813
-0.0118902
-6.91317
0.00583671
2.33626
2.00967
2.32218
-2.92097
-2.9233
-2.85786
-2.85599
11.1915
0.0524368
0.888312
0.891135
1.13545
1.15173
-2.76135
-2.80787
-2.7627
-0.0627724
0.216152
0.123866
0.12665
-0.709021
-0.517685
-0.592325
-0.00505202
2.90848
-1.08315
-6.82928
2.05578
2.17487
2.2727
-2.94946
-2.93566
-2.85346
-2.85775
11.1282
0.0941231
1.20823
0.9725
1.05874
0.855482
-2.79562
-2.76143
-2.76055
1.32269
0.441809
-2.81736
-2.76796
-2.8153
1.58388e-05
0.823267
-0.225341
1.35155e-05
-0.193052
0.143969
0.597914
-1.00414
3.08473e-05
0.72077
-0.314546
1.9175e-05
0.823277
-0.225364
1.08473e-05
-0.192984
0.143946
0.597929
-1.00414