/*--------------------------------*- C++ -*----------------------------------*\
  =========                 |
  \\      /  F ield         | OpenFOAM: The Open Source CFD Toolbox
   \\    /   O peration     | Website:  https://openfoam.org
    \\  /    A nd           | Version:  10
     \\/     M anipulation  |
\*---------------------------------------------------------------------------*/
FoamFile
{
    format      ascii;
    class       volVectorField;
    location    "0";
    object      U;
}
// * * * * * * * * * * * * * * * * * * * * * * * * * * * * * * * * * * * * * //

dimensions      [0 1 -1 0 0 0 0];

internalField   nonuniform List<vector> 
8649
(
(0.489479 -0.0668033 2.37271e-05)
(0.489488 -0.0668067 2.18751e-05)
(0.543549 -0.0598877 1.37316e-05)
(0.481287 -0.0667457 2.24481e-05)
(0.54156 -9.02781e-05 9.10723e-06)
(0.520817 -0.0373753 1.46621e-05)
(0.485712 -0.0519242 2.13441e-05)
(0.489495 -0.0668081 1.54351e-05)
(0.581202 0.015317 7.41465e-06)
(0.543555 -0.0598892 1.10564e-05)
(0.481293 -0.0667483 1.56972e-05)
(0.541565 -9.10479e-05 7.28919e-06)
(0.520823 -0.0373772 1.09001e-05)
(0.485717 -0.0519278 1.51686e-05)
(0.489499 -0.0668086 9.11296e-06)
(0.413181 -0.0891423 1.24606e-05)
(0.581205 0.0153169 5.09754e-06)
(0.543558 -0.0598902 7.35339e-06)
(0.481296 -0.0667495 9.08816e-06)
(0.436168 -0.0658641 1.18955e-05)
(0.541568 -9.16624e-05 4.4712e-06)
(0.520826 -0.0373783 6.48936e-06)
(0.485721 -0.0519297 8.85071e-06)
(0.445517 -0.0458941 1.14714e-05)
(0.341482 -0.193012 7.51329e-06)
(0.489504 -0.0668078 1.79755e-06)
(0.413183 -0.0891433 3.89151e-06)
(0.581207 0.0153169 1.88929e-06)
(0.543559 -0.0598925 2.83929e-06)
(0.481298 -0.0667498 2.81193e-06)
(0.43617 -0.0658654 3.7102e-06)
(0.541569 -9.1985e-05 1.11866e-06)
(0.520828 -0.0373789 1.91415e-06)
(0.485722 -0.0519304 2.65607e-06)
(0.445518 -0.0458955 3.46456e-06)
(0.341482 -0.193013 -7.97709e-07)
(0.577173 0.0737859 -7.36734e-07)
(0.489502 -0.0668091 -1.33098e-06)
(0.413183 -0.0891433 -4.62352e-06)
(0.550245 0.0682103 -1.16632e-06)
(0.581207 0.0153168 -1.19754e-06)
(0.54356 -0.0598908 -1.94517e-06)
(0.481298 -0.0667502 -3.52733e-06)
(0.43617 -0.0658654 -4.44306e-06)
(0.535338 0.0480654 -1.84338e-06)
(0.541569 -9.17928e-05 -2.2645e-06)
(0.520828 -0.0373789 -2.88928e-06)
(0.485722 -0.0519306 -3.44645e-06)
(0.445518 -0.0458955 -4.19882e-06)
(0.341481 -0.193012 -8.98438e-06)
(0.513539 0.197308 -1.14147e-05)
(0.577173 0.0737862 -2.93086e-06)
(0.489501 -0.0668093 -8.33095e-06)
(0.413181 -0.0891424 -1.3281e-05)
(0.447682 0.113521 -2.59467e-06)
(0.504737 0.123829 -5.24161e-07)
(0.550244 0.0682104 -3.37091e-06)
(0.581206 0.0153171 -4.33417e-06)
(0.543559 -0.0598904 -6.07112e-06)
(0.481296 -0.0667496 -1.01863e-05)
(0.436168 -0.0658641 -1.27206e-05)
(0.504631 0.079716 -3.17794e-06)
(0.535337 0.0480656 -4.04474e-06)
(0.541568 -9.14998e-05 -5.51729e-06)
(0.520827 -0.0373782 -7.48034e-06)
(0.485721 -0.0519297 -9.83522e-06)
(0.445517 -0.0458941 -1.22769e-05)
(0.341479 -0.193011 -1.77022e-05)
(0.513538 0.197307 -1.32037e-05)
(0.577172 0.0737861 -4.86074e-06)
(0.489498 -0.0668086 -1.48976e-05)
(0.413178 -0.0891404 -2.24031e-05)
(0.447682 0.113521 -3.59892e-06)
(0.504736 0.123828 -2.55393e-06)
(0.550243 0.0682105 -5.45357e-06)
(0.581204 0.0153169 -7.04193e-06)
(0.543557 -0.0598896 -1.0116e-05)
(0.481293 -0.0667479 -1.68887e-05)
(0.436165 -0.0658614 -2.14558e-05)
(0.504629 0.0797159 -4.58838e-06)
(0.535335 0.0480656 -5.93626e-06)
(0.541565 -9.10514e-05 -8.42476e-06)
(0.520823 -0.0373771 -1.19542e-05)
(0.485717 -0.0519275 -1.62268e-05)
(0.445513 -0.0458903 -2.01377e-05)
(0.341475 -0.193008 -2.6408e-05)
(0.513536 0.197307 -1.40515e-05)
(0.577171 0.0737861 -6.4852e-06)
(0.489496 -0.0668067 -2.20809e-05)
(0.413172 -0.0891372 -3.22302e-05)
(0.447682 0.11352 -4.58202e-06)
(0.504734 0.123827 -3.88027e-06)
(0.550241 0.0682103 -7.02431e-06)
(0.581201 0.0153169 -9.41623e-06)
(0.543551 -0.0598908 -1.40025e-05)
(0.481287 -0.066745 -2.34025e-05)
(0.43616 -0.0658567 -3.07508e-05)
(0.504627 0.0797152 -5.61823e-06)
(0.535331 0.0480652 -7.07936e-06)
(0.541561 -9.02588e-05 -1.0493e-05)
(0.520817 -0.0373751 -1.58516e-05)
(0.485712 -0.0519237 -2.23717e-05)
(0.445508 -0.0458841 -2.90666e-05)
(0.341467 -0.193004 -3.59984e-05)
(0.513535 0.197308 -1.52452e-05)
(0.577169 0.0737862 -7.54707e-06)
(0.489486 -0.0668061 -2.44679e-05)
(0.413164 -0.0891316 -4.368e-05)
(0.447682 0.113518 -5.87782e-06)
(0.504731 0.123826 -5.16257e-06)
(0.550238 0.0682099 -7.49737e-06)
(0.581197 0.0153168 -1.02324e-05)
(0.543545 -0.0598869 -1.65552e-05)
(0.481279 -0.0667417 -3.0011e-05)
(0.436154 -0.0658487 -4.0995e-05)
(0.504623 0.0797144 -6.1123e-06)
(0.535327 0.0480647 -6.76675e-06)
(0.541554 -8.90691e-05 -1.06737e-05)
(0.520809 -0.037372 -1.82941e-05)
(0.485704 -0.0519183 -2.88842e-05)
(0.445503 -0.0458752 -3.84436e-05)
(0.341457 -0.192998 -4.59934e-05)
(0.577169 0.0737861 -6.34844e-06)
(0.489474 -0.0668051 -2.96865e-05)
(0.413155 -0.0891227 -6.00001e-05)
(0.447684 0.113516 -7.94876e-06)
(0.50473 0.123823 -6.57486e-06)
(0.550237 0.0682099 -6.12467e-06)
(0.581191 0.0153166 -6.89662e-06)
(0.543535 -0.0598843 -1.51847e-05)
(0.481265 -0.0667369 -3.85451e-05)
(0.436146 -0.065834 -5.44765e-05)
(0.50462 0.0797125 -5.67396e-06)
(0.535321 0.0480633 -3.44089e-06)
(0.541545 -8.80624e-05 -6.24387e-06)
(0.520795 -0.0373682 -1.69761e-05)
(0.485691 -0.0519106 -3.76947e-05)
(0.445498 -0.0458607 -4.97791e-05)
(0.577173 0.0737875 -2.66394e-06)
(0.489452 -0.0668016 -2.98915e-05)
(0.413149 -0.0891049 -9.57988e-05)
(0.44769 0.11351 -1.29807e-05)
(0.504729 0.123816 -9.458e-06)
(0.550239 0.0682084 -4.82601e-07)
(0.581187 0.0153147 5.67782e-06)
(0.543519 -0.0598835 -1.40039e-06)
(0.481238 -0.0667349 -6.05053e-05)
(0.436147 -0.0658059 -8.15777e-05)
(0.504617 0.0797087 -4.13837e-06)
(0.535315 0.0480595 5.10097e-06)
(0.541532 -9.09193e-05 7.75242e-06)
(0.52077 -0.0373667 -6.28035e-06)
(0.485671 -0.0518996 -5.98496e-05)
(0.4455 -0.0458341 -7.0626e-05)
(0.577189 0.073791 7.99938e-06)
(0.48941 -0.0667749 -2.2133e-05)
(0.413184 -0.0890699 -0.00022676)
(0.447707 0.113492 -3.05207e-05)
(0.504739 0.123797 -1.07408e-05)
(0.550248 0.068203 1.45814e-05)
(0.581193 0.0153128 3.76451e-05)
(0.54349 -0.0598642 6.37595e-05)
(0.481201 -0.066737 -0.00010858)
(0.436229 -0.0657376 -0.000155092)
(0.504619 0.0797014 -1.80726e-07)
(0.535314 0.048051 2.14544e-05)
(0.541518 -0.000104713 4.02644e-05)
(0.520717 -0.0373873 2.49671e-05)
(0.485647 -0.0518716 -0.000164738)
(0.445559 -0.0457795 -0.000125229)
(0.577238 0.0738054 3.66153e-05)
(0.489197 -0.0667039 0.000287808)
(0.413223 -0.0891946 -0.00110313)
(0.550269 0.0682023 0.000118084)
(0.581258 0.0153389 0.000151081)
(0.543467 -0.059397 0.0002887)
(0.481334 -0.0672438 -0.000657872)
(0.436046 -0.0657644 -0.000115835)
(0.535365 0.0480514 3.94911e-05)
(0.541611 -0.000150147 8.95925e-05)
(0.520888 -0.0374609 0.000244407)
(0.485675 -0.0521549 -0.000839882)
(0.445972 -0.0460064 -0.000139069)
(0.486201 -0.0666825 0.000648436)
(0.582287 0.0156729 0.000196526)
(0.54617 -0.0617282 0.000347054)
(0.521484 -0.149914 3.67597e-05)
(0.521493 -0.149917 6.59387e-06)
(0.521495 -0.149918 3.89097e-05)
(0.521501 -0.149921 5.60091e-08)
(0.521502 -0.149921 3.27432e-05)
(0.521506 -0.149922 -5.59178e-06)
(0.521507 -0.149922 2.70075e-05)
(0.521509 -0.149923 -1.43467e-05)
(0.521511 -0.149921 1.70762e-05)
(0.52151 -0.149923 -1.46818e-05)
(0.52151 -0.149923 1.7356e-05)
(0.52151 -0.149923 -2.22751e-05)
(0.521509 -0.149923 1.03053e-05)
(0.521507 -0.149922 -2.84117e-05)
(0.521506 -0.149922 4.20403e-06)
(0.521503 -0.14992 -3.71589e-05)
(0.521503 -0.149919 -5.7007e-06)
(0.521495 -0.149918 -3.65936e-05)
(0.521493 -0.149918 -4.37878e-06)
(0.521484 -0.149915 -4.23162e-05)
(0.521482 -0.149915 -9.15101e-06)
(0.521465 -0.149909 -4.172e-05)
(0.52146 -0.149909 -7.81249e-06)
(0.521425 -0.149897 -2.85062e-05)
(0.521419 -0.149892 4.03124e-06)
(0.521313 -0.149906 0.000220018)
(0.52128 -0.149905 0.000354397)
(0.521384 -0.159251 -0.00194795)
(0.5209 -0.163418 -0.000580298)
(0.469943 -0.0789155 2.35463e-05)
(0.469951 -0.0789175 2.4221e-05)
(0.511532 -0.11648 2.03666e-05)
(0.51154 -0.116484 2.38965e-05)
(0.55856 -0.0697575 1.06213e-05)
(0.50924 -0.070338 1.59216e-05)
(0.469952 -0.0789182 2.32098e-05)
(0.469958 -0.0789196 1.74717e-05)
(0.511542 -0.116484 2.14193e-05)
(0.558562 -0.0697571 1.58798e-05)
(0.509245 -0.0703363 2.38849e-05)
(0.511548 -0.116487 1.74744e-05)
(0.558567 -0.0697582 1.00217e-05)
(0.509248 -0.0703403 1.20587e-05)
(0.469959 -0.0789201 1.66936e-05)
(0.469963 -0.0789206 1.15543e-05)
(0.481477 -0.157431 6.48087e-05)
(0.511549 -0.116486 1.52786e-05)
(0.558569 -0.0697578 1.38788e-05)
(0.509251 -0.0703377 1.9093e-05)
(0.511554 -0.116488 1.22803e-05)
(0.558572 -0.0697587 6.2431e-06)
(0.509253 -0.0703409 6.66536e-06)
(0.469964 -0.0789208 1.06393e-05)
(0.48148 -0.15743 -3.42108e-05)
(0.469966 -0.0789207 3.55374e-06)
(0.481481 -0.157433 5.62778e-05)
(0.511554 -0.116487 9.13405e-06)
(0.558573 -0.0697589 9.77548e-06)
(0.509255 -0.0703396 1.37492e-05)
(0.511557 -0.116488 3.77945e-06)
(0.558574 -0.0697601 3.37414e-06)
(0.509256 -0.0703405 1.31078e-07)
(0.469968 -0.0789202 2.22937e-06)
(0.481483 -0.157432 -4.19716e-05)
(0.469967 -0.0789208 1.80674e-06)
(0.481483 -0.157433 4.88258e-05)
(0.511559 -0.116486 -3.7424e-07)
(0.558575 -0.0697615 6.46266e-06)
(0.509257 -0.0703382 7.56396e-06)
(0.511558 -0.116488 3.14691e-06)
(0.558575 -0.0697603 -3.26211e-06)
(0.509257 -0.0703398 -2.99202e-06)
(0.469967 -0.0789212 5.10161e-07)
(0.481483 -0.157433 -4.94956e-05)
(0.469966 -0.0789212 -5.72042e-06)
(0.481482 -0.157431 4.11446e-05)
(0.511558 -0.116489 -5.33009e-07)
(0.558575 -0.0697596 5.81537e-07)
(0.509257 -0.0703406 3.9474e-06)
(0.511557 -0.116488 -4.42712e-06)
(0.558575 -0.0697593 -6.54819e-06)
(0.509258 -0.0703404 -9.63501e-06)
(0.469966 -0.0789214 -6.5897e-06)
(0.481481 -0.157433 -5.72066e-05)
(0.469964 -0.0789208 -1.21126e-05)
(0.48148 -0.15743 3.31787e-05)
(0.511557 -0.116489 -7.5483e-06)
(0.558574 -0.0697591 -3.23026e-06)
(0.509257 -0.0703415 -2.20713e-06)
(0.511555 -0.116488 -1.05257e-05)
(0.558573 -0.0697588 -1.05399e-05)
(0.509255 -0.0703396 -1.50684e-05)
(0.469963 -0.0789207 -1.30219e-05)
(0.481478 -0.157432 -6.51703e-05)
(0.46996 -0.0789195 -2.01032e-05)
(0.481476 -0.157427 2.52173e-05)
(0.511554 -0.116488 -1.36681e-05)
(0.558572 -0.0697588 -7.0121e-06)
(0.509253 -0.0703409 -8.00826e-06)
(0.51155 -0.116485 -1.9402e-05)
(0.558569 -0.0697588 -1.38338e-05)
(0.509251 -0.0703368 -2.13757e-05)
(0.46996 -0.0789186 -2.14117e-05)
(0.481472 -0.157431 -7.342e-05)
(0.469953 -0.0789177 -2.11236e-05)
(0.481469 -0.157424 1.74796e-05)
(0.51155 -0.116485 -2.2694e-05)
(0.558567 -0.0697605 -1.02331e-05)
(0.509248 -0.0703381 -1.43843e-05)
(0.511542 -0.116483 -1.91589e-05)
(0.558563 -0.0697577 -1.88742e-05)
(0.509245 -0.0703354 -2.32148e-05)
(0.469951 -0.078918 -2.22625e-05)
(0.481464 -0.157429 -8.09247e-05)
(0.469942 -0.0789161 -2.72564e-05)
(0.481458 -0.157418 7.9151e-06)
(0.511541 -0.116485 -2.17492e-05)
(0.558561 -0.0697568 -1.36217e-05)
(0.509241 -0.0703386 -1.5374e-05)
(0.511532 -0.116481 -2.53013e-05)
(0.558555 -0.0697547 -1.82256e-05)
(0.509236 -0.0703325 -2.7029e-05)
(0.46994 -0.0789165 -2.76359e-05)
(0.48145 -0.157426 -8.84266e-05)
(0.469924 -0.0789126 -2.79288e-05)
(0.481438 -0.157403 -4.38792e-06)
(0.511529 -0.116482 -2.61964e-05)
(0.558552 -0.0697541 -1.35627e-05)
(0.509228 -0.0703376 -1.86212e-05)
(0.511514 -0.116477 -2.43331e-05)
(0.558543 -0.0697523 -1.24354e-05)
(0.50922 -0.0703307 -2.45935e-05)
(0.46992 -0.0789127 -2.7833e-05)
(0.481426 -0.157413 -9.98742e-05)
(0.469888 -0.0789037 -1.64239e-05)
(0.481403 -0.157386 -2.73995e-05)
(0.51151 -0.116478 -2.51075e-05)
(0.558539 -0.069754 -3.48598e-06)
(0.509209 -0.070338 -1.22824e-05)
(0.511477 -0.116467 -1.06441e-05)
(0.558525 -0.0697479 1.85867e-05)
(0.509187 -0.0703306 2.31456e-06)
(0.469882 -0.0788944 -1.74605e-05)
(0.481379 -0.157371 -0.000149158)
(0.469745 -0.0788966 0.000215176)
(0.481322 -0.157475 -0.000308085)
(0.511472 -0.116462 -1.09775e-05)
(0.558522 -0.0697461 4.07774e-05)
(0.509179 -0.0703312 1.40833e-05)
(0.511383 -0.116513 0.000230876)
(0.558495 -0.0696711 0.00042341)
(0.509093 -0.0704909 0.000165621)
(0.469714 -0.0788644 0.000290219)
(0.481246 -0.157569 -0.000880368)
(0.463501 -0.0783573 0.00540861)
(0.482561 -0.158596 -0.00872421)
(0.511358 -0.11652 0.000324232)
(0.558533 -0.0693509 0.000953923)
(0.509187 -0.0706594 0.00027963)
(0.51118 -0.12172 0.00366131)
(0.558944 -0.070555 0.00531466)
(0.508626 -0.0681765 -0.00634601)
(0.460254 -0.0789671 0.00401511)
(0.600684 0.033196 0.00696437)
(0.578452 -0.0430685 -0.0044231)
(0.509137 -0.123127 0.00255114)
(0.559642 -0.0709189 0.00493224)
(0.507195 -0.0694116 -0.00301667)
(0.632917 -0.0799445 3.8921e-06)
(0.521498 -0.149913 8.92377e-06)
(0.632929 -0.0798994 1.86087e-05)
(0.521493 -0.149915 4.43841e-05)
(0.632928 -0.079949 2.37745e-05)
(0.632919 -0.0799448 3.534e-05)
(0.632932 -0.0799499 1.83106e-05)
(0.521495 -0.149918 3.4334e-06)
(0.632929 -0.0799503 1.66677e-05)
(0.521496 -0.149919 3.48824e-05)
(0.63294 -0.0799509 1.63684e-05)
(0.632932 -0.07995 1.71608e-05)
(0.632942 -0.0799511 1.29854e-05)
(0.521501 -0.149921 -2.2693e-06)
(0.632938 -0.0799505 1.18671e-05)
(0.521503 -0.14992 2.91487e-05)
(0.632946 -0.0799516 1.15486e-05)
(0.632939 -0.0799507 1.25686e-05)
(0.632947 -0.0799516 7.91063e-06)
(0.521505 -0.149922 -8.5241e-06)
(0.632942 -0.079951 6.51398e-06)
(0.521506 -0.149921 2.28551e-05)
(0.632947 -0.0799515 2.44808e-06)
(0.632942 -0.079951 6.57021e-06)
(0.632947 -0.0799475 -1.41859e-05)
(0.521522 -0.149918 -1.06616e-05)
(0.632958 -0.0798963 1.56338e-06)
(0.521514 -0.149921 2.47183e-05)
(0.63295 -0.0799515 5.59873e-06)
(0.632943 -0.0799472 1.94262e-05)
(0.63295 -0.079952 -9.92983e-07)
(0.521507 -0.149922 -1.85363e-05)
(0.632945 -0.0799514 -2.90358e-06)
(0.521507 -0.149922 1.28144e-05)
(0.632951 -0.079952 -3.7803e-06)
(0.632945 -0.0799514 -2.54696e-06)
(0.63295 -0.0799519 -7.43467e-06)
(0.521506 -0.149922 -2.4934e-05)
(0.632944 -0.0799511 -8.68291e-06)
(0.521506 -0.149922 6.55766e-06)
(0.632948 -0.0799516 -9.17741e-06)
(0.632943 -0.079951 -8.05445e-06)
(0.632947 -0.0799515 -1.28389e-05)
(0.521502 -0.149921 -3.12042e-05)
(0.632939 -0.0799506 -1.42078e-05)
(0.521502 -0.14992 4.09885e-08)
(0.63294 -0.0799505 -1.82675e-05)
(0.632937 -0.0799502 -1.41501e-05)
(0.632937 -0.0799461 -3.49282e-05)
(0.521511 -0.149915 -3.28881e-05)
(0.632946 -0.0798936 -1.85645e-05)
(0.521502 -0.149918 2.745e-06)
(0.632932 -0.0799492 -1.38788e-05)
(0.632928 -0.0799451 -8.94773e-08)
(0.632929 -0.0799493 -1.99516e-05)
(0.521487 -0.149916 -3.95624e-05)
(0.632922 -0.0799486 -2.12182e-05)
(0.521486 -0.149916 -7.78761e-06)
(0.632921 -0.0799481 -2.03896e-05)
(0.632919 -0.079948 -2.01774e-05)
(0.632916 -0.0799476 -2.28678e-05)
(0.521473 -0.149912 -4.18563e-05)
(0.632908 -0.0799467 -2.21214e-05)
(0.52147 -0.149911 -9.25317e-06)
(0.632895 -0.079945 -1.8284e-05)
(0.632902 -0.0799459 -1.97876e-05)
(0.632887 -0.0799443 -1.59405e-05)
(0.521446 -0.149904 -3.70173e-05)
(0.632878 -0.0799432 -1.16335e-05)
(0.52144 -0.149903 -2.25805e-06)
(0.632852 -0.0799401 -1.29761e-06)
(0.632867 -0.0799419 -5.89309e-06)
(0.632835 -0.0799348 -2.9702e-06)
(0.521395 -0.149886 -6.5247e-06)
(0.632823 -0.0798874 4.22667e-05)
(0.521367 -0.149898 5.88193e-05)
(0.632568 -0.0798563 0.000497227)
(0.632732 -0.0799256 0.000163876)
(0.631776 -0.0795337 0.00147923)
(0.520612 -0.150078 0.000822319)
(0.628987 -0.0785344 0.00353971)
(0.519362 -0.150425 0.00061942)
(0.598478 -0.0693284 0.0151068)
(0.613384 -0.0762964 0.0161477)
(0.553996 -0.0640714 0.00118085)
(0.489486 -0.0668056 2.5777e-05)
(0.501452 -0.0653085 2.64045e-05)
(0.501457 -0.0653094 2.29982e-05)
(0.489493 -0.0668082 1.90675e-05)
(0.50146 -0.0653112 1.95085e-05)
(0.501464 -0.0653117 1.67067e-05)
(0.489498 -0.0668087 1.31169e-05)
(0.482838 -0.119419 1.61697e-05)
(0.501466 -0.0653123 1.37442e-05)
(0.468412 -0.0946626 1.76526e-05)
(0.482841 -0.119419 1.11093e-05)
(0.501468 -0.0653122 9.93375e-06)
(0.468415 -0.094662 8.05789e-06)
(0.489501 -0.0668087 5.73697e-06)
(0.482842 -0.11942 8.89634e-06)
(0.501469 -0.0653124 6.50696e-06)
(0.468416 -0.0946632 1.11161e-05)
(0.482844 -0.11942 4.17468e-06)
(0.501471 -0.0653116 3.93832e-06)
(0.468417 -0.094663 1.51793e-06)
(0.489503 -0.0668086 3.08314e-06)
(0.482844 -0.11942 2.14301e-06)
(0.501471 -0.065312 1.67012e-06)
(0.468417 -0.0946634 4.64384e-06)
(0.482844 -0.11942 -2.70061e-06)
(0.501471 -0.0653129 -1.45118e-06)
(0.468417 -0.0946634 -5.21847e-06)
(0.489502 -0.0668093 -4.39062e-06)
(0.482843 -0.11942 -4.98734e-06)
(0.50147 -0.0653128 -4.74489e-06)
(0.468417 -0.0946631 -2.34453e-06)
(0.482842 -0.119419 -9.96476e-06)
(0.501469 -0.065313 -8.11207e-06)
(0.468416 -0.0946634 -1.21576e-05)
(0.489499 -0.0668089 -1.08691e-05)
(0.482841 -0.119418 -1.23656e-05)
(0.501468 -0.0653124 -1.14273e-05)
(0.468415 -0.0946619 -9.22504e-06)
(0.482839 -0.119418 -1.74657e-05)
(0.501466 -0.0653121 -1.52839e-05)
(0.468412 -0.0946623 -1.88703e-05)
(0.489496 -0.0668077 -1.83087e-05)
(0.482837 -0.119417 -2.01664e-05)
(0.501464 -0.0653111 -1.84896e-05)
(0.468412 -0.0946596 -1.57332e-05)
(0.482833 -0.119416 -2.48337e-05)
(0.501462 -0.0653098 -2.05863e-05)
(0.468408 -0.0946602 -2.55453e-05)
(0.489489 -0.0668062 -2.03529e-05)
(0.482829 -0.119414 -2.71694e-05)
(0.501458 -0.0653084 -2.30555e-05)
(0.468406 -0.0946568 -2.26445e-05)
(0.482822 -0.119413 -3.20228e-05)
(0.501452 -0.0653092 -2.65956e-05)
(0.4684 -0.0946578 -3.14316e-05)
(0.489478 -0.0668045 -2.66449e-05)
(0.482818 -0.11941 -3.55266e-05)
(0.501446 -0.0653067 -3.03691e-05)
(0.468397 -0.0946531 -2.84537e-05)
(0.482806 -0.119409 -4.0886e-05)
(0.501438 -0.0653091 -3.31256e-05)
(0.468389 -0.0946548 -3.63883e-05)
(0.48946 -0.066802 -2.83498e-05)
(0.4828 -0.119401 -4.51047e-05)
(0.501428 -0.0653035 -3.60221e-05)
(0.468383 -0.0946467 -3.24285e-05)
(0.482781 -0.119397 -5.33817e-05)
(0.501414 -0.0653034 -4.07998e-05)
(0.468371 -0.0946442 -3.88254e-05)
(0.489422 -0.0667958 -1.75958e-05)
(0.482763 -0.11939 -6.13906e-05)
(0.50139 -0.0653082 -3.17599e-05)
(0.468365 -0.0946478 -1.58062e-05)
(0.482731 -0.119323 -0.000145395)
(0.501379 -0.065223 -7.2102e-05)
(0.468343 -0.0944989 -0.000135772)
(0.489275 -0.0668104 0.000173927)
(0.482636 -0.119507 -0.000215278)
(0.501198 -0.0654227 0.000120201)
(0.468207 -0.0947906 -0.000405179)
(0.482604 -0.119739 -1.51901e-05)
(0.501018 -0.0651661 0.00138424)
(0.467615 -0.0948089 -0.00170538)
(0.487035 -0.0670648 0.000659182)
(0.482707 -0.120475 0.00123972)
(0.499951 -0.0664515 0.00335697)
(0.467177 -0.0955446 -0.00357235)
(0.501437 -0.0641883 0.00165878)
(0.428062 -0.165824 2.01822e-05)
(0.603171 -0.0665099 -0.00073924)
(0.52149 -0.149913 1.23141e-06)
(0.428069 -0.165821 1.87753e-05)
(0.603173 -0.0665056 0.000763004)
(0.521492 -0.149918 4.17455e-05)
(0.428071 -0.165826 2.37038e-05)
(0.60318 -0.0665109 0.000776901)
(0.428069 -0.165827 2.55488e-05)
(0.603178 -0.0665128 -0.000730243)
(0.428072 -0.165827 2.22914e-05)
(0.603183 -0.0665108 -0.000734135)
(0.521495 -0.149918 4.07018e-06)
(0.428073 -0.165827 2.0955e-05)
(0.603181 -0.0665124 0.000773559)
(0.5215 -0.14992 3.45146e-05)
(0.428077 -0.16583 1.71053e-05)
(0.60319 -0.0665124 0.000770857)
(0.428076 -0.165829 1.82052e-05)
(0.603188 -0.0665141 -0.000737343)
(0.428078 -0.16583 1.59988e-05)
(0.603192 -0.0665122 -0.000739569)
(0.521502 -0.149921 -1.72505e-06)
(0.428078 -0.16583 1.51004e-05)
(0.60319 -0.0665147 0.000768558)
(0.521505 -0.149922 2.89148e-05)
(0.428082 -0.165831 1.13649e-05)
(0.603196 -0.0665129 0.000765574)
(0.428081 -0.165831 1.24727e-05)
(0.603194 -0.066515 -0.000742445)
(0.428082 -0.165831 1.02241e-05)
(0.603197 -0.0665127 -0.000745057)
(0.521506 -0.149923 -7.59733e-06)
(0.428082 -0.165832 9.08905e-06)
(0.603195 -0.0665151 0.000762982)
(0.521508 -0.149922 2.13267e-05)
(0.428084 -0.165832 2.55079e-06)
(0.603199 -0.0665127 0.000756142)
(0.428084 -0.165831 4.8395e-06)
(0.603196 -0.0665147 -0.00074991)
(0.428087 -0.165831 5.95938e-07)
(0.6032 -0.066511 -0.000757238)
(0.521514 -0.149923 -1.86294e-05)
(0.428088 -0.165833 -1.56658e-06)
(0.603203 -0.0665127 0.000744441)
(0.52151 -0.149924 2.0886e-05)
(0.428085 -0.165832 2.08958e-06)
(0.6032 -0.0665129 0.000757061)
(0.428084 -0.165833 4.40805e-06)
(0.603199 -0.0665156 -0.000749913)
(0.428084 -0.165833 4.55518e-07)
(0.6032 -0.0665133 -0.000754229)
(0.521509 -0.149923 -1.7515e-05)
(0.428085 -0.165832 -8.92133e-07)
(0.603198 -0.0665152 0.000753354)
(0.521509 -0.149924 1.23557e-05)
(0.428084 -0.165833 -5.42492e-06)
(0.6032 -0.0665133 0.00074951)
(0.428084 -0.165833 -4.1509e-06)
(0.603198 -0.0665157 -0.000758524)
(0.428084 -0.165833 -6.63734e-06)
(0.6032 -0.0665135 -0.000761076)
(0.521509 -0.149923 -2.41866e-05)
(0.428084 -0.165832 -7.63389e-06)
(0.603198 -0.0665157 0.000747024)
(0.521507 -0.149923 6.17394e-06)
(0.428082 -0.165832 -1.16506e-05)
(0.603197 -0.0665129 0.000743708)
(0.428083 -0.165832 -1.04857e-05)
(0.603195 -0.0665153 -0.00076423)
(0.428082 -0.165831 -1.27619e-05)
(0.603196 -0.066513 -0.000766894)
(0.521505 -0.149922 -3.03492e-05)
(0.428081 -0.165832 -1.38717e-05)
(0.603194 -0.0665152 0.000741194)
(0.521502 -0.149921 -1.39669e-06)
(0.428078 -0.16583 -2.04763e-05)
(0.603192 -0.0665116 0.000734247)
(0.428079 -0.165829 -1.81474e-05)
(0.603189 -0.066514 -0.000771722)
(0.42808 -0.165828 -2.23975e-05)
(0.603191 -0.0665101 -0.000779032)
(0.521505 -0.14992 -4.12802e-05)
(0.42808 -0.16583 -2.44631e-05)
(0.603193 -0.0665112 0.000722711)
(0.521495 -0.149919 -1.01796e-06)
(0.428072 -0.165827 -2.00477e-05)
(0.603183 -0.0665105 0.000736354)
(0.428072 -0.165829 -1.77388e-05)
(0.603182 -0.0665135 -0.000770725)
(0.428071 -0.165827 -2.15407e-05)
(0.603181 -0.0665114 -0.000774699)
(0.521492 -0.149917 -3.91199e-05)
(0.42807 -0.165826 -2.28113e-05)
(0.603178 -0.0665124 0.000732819)
(0.521485 -0.149916 -7.70201e-06)
(0.428062 -0.165824 -2.5717e-05)
(0.603172 -0.0665092 0.000730994)
(0.428064 -0.165824 -2.46696e-05)
(0.603169 -0.0665122 -0.000777174)
(0.428061 -0.165823 -2.64619e-05)
(0.603168 -0.0665098 -0.000778781)
(0.52148 -0.149914 -4.30859e-05)
(0.428059 -0.165823 -2.68076e-05)
(0.603165 -0.0665112 0.000729889)
(0.521467 -0.149911 -7.88389e-06)
(0.428046 -0.165817 -2.54683e-05)
(0.603147 -0.0665085 0.000732466)
(0.428049 -0.165819 -2.52132e-05)
(0.603149 -0.0665097 -0.000775806)
(0.428044 -0.165816 -2.54342e-05)
(0.603142 -0.066509 -0.000775326)
(0.521457 -0.149908 -4.07228e-05)
(0.42804 -0.165816 -2.49082e-05)
(0.603139 -0.0665082 0.000734052)
(0.52143 -0.149899 2.5592e-06)
(0.428013 -0.165804 -1.40456e-05)
(0.603105 -0.0665028 0.000747476)
(0.428019 -0.165806 -1.49666e-05)
(0.603108 -0.0665051 -0.000762187)
(0.428009 -0.165799 -1.41552e-05)
(0.603095 -0.0665012 -0.000761028)
(0.521414 -0.149889 -2.95999e-05)
(0.428002 -0.165797 -1.52535e-05)
(0.603092 -0.0664986 0.000743921)
(0.521332 -0.149904 0.000170309)
(0.427916 -0.165786 0.000231046)
(0.602912 -0.066564 0.00102873)
(0.427933 -0.165791 0.000151191)
(0.602951 -0.0665401 -0.000582967)
(0.427888 -0.165776 0.000329602)
(0.602642 -0.0666202 -0.0003387)
(0.52119 -0.149918 0.000449755)
(0.427823 -0.165771 0.000457711)
(0.602503 -0.0667088 0.00140218)
(0.51917 -0.154417 -0.00171664)
(0.425111 -0.184711 0.00297102)
(0.595495 -0.0571827 0.00740794)
(0.427483 -0.174242 0.0029407)
(0.592275 -0.0647882 0.00429816)
(0.423122 -0.192907 0.00182276)
(0.576535 -0.0621058 0.00728203)
(0.519695 -0.165581 0.000485778)
(0.420847 -0.195929 0.00111708)
(0.578768 -0.0599104 0.00113066)
(0.469951 -0.0789167 2.30453e-05)
(0.544719 -0.039137 2.89372e-05)
(0.544724 -0.0391364 2.66621e-05)
(0.469951 -0.0789187 2.62017e-05)
(0.54473 -0.039137 2.6555e-05)
(0.544722 -0.039138 2.92876e-05)
(0.511508 -0.0803232 1.05133e-05)
(0.511545 -0.116477 2.43606e-05)
(0.511504 -0.0802886 1.91696e-05)
(0.519205 -0.0774074 1.86832e-05)
(0.514567 -0.0799446 1.98183e-05)
(0.519204 -0.0774237 1.49471e-05)
(0.514571 -0.0799416 2.15373e-05)
(0.511541 -0.116479 2.65371e-05)
(0.511521 -0.0803297 2.07577e-05)
(0.511514 -0.0803241 2.74968e-05)
(0.519213 -0.0774229 2.30932e-05)
(0.514575 -0.0799498 2.27928e-05)
(0.514572 -0.0799455 2.42442e-05)
(0.519216 -0.0774286 2.0211e-05)
(0.469955 -0.0789196 1.83024e-05)
(0.54473 -0.0391381 2.5987e-05)
(0.544734 -0.0391398 2.22898e-05)
(0.469956 -0.0789213 1.91452e-05)
(0.544738 -0.039139 1.85397e-05)
(0.544732 -0.039141 2.23682e-05)
(0.511525 -0.0803309 1.90449e-05)
(0.511546 -0.116485 1.92428e-05)
(0.511527 -0.0803319 1.73857e-05)
(0.519224 -0.0774292 1.6752e-05)
(0.514578 -0.0799497 2.06307e-05)
(0.519219 -0.0774296 1.82299e-05)
(0.514578 -0.0799507 1.88499e-05)
(0.511546 -0.116485 1.79763e-05)
(0.511531 -0.0803322 1.45016e-05)
(0.511529 -0.0803318 1.54484e-05)
(0.519226 -0.0774292 1.59755e-05)
(0.514583 -0.0799521 1.65353e-05)
(0.51458 -0.0799507 1.75864e-05)
(0.519225 -0.077431 1.49507e-05)
(0.469961 -0.0789212 1.23643e-05)
(0.544738 -0.0391381 1.86377e-05)
(0.544741 -0.039141 1.57068e-05)
(0.469962 -0.0789226 1.32103e-05)
(0.544743 -0.0391401 1.20196e-05)
(0.544739 -0.0391421 1.5791e-05)
(0.511532 -0.0803325 1.41479e-05)
(0.511552 -0.116487 1.37446e-05)
(0.511533 -0.0803325 1.28973e-05)
(0.51923 -0.07743 1.2329e-05)
(0.514585 -0.0799518 1.50268e-05)
(0.519227 -0.0774312 1.36114e-05)
(0.514584 -0.0799525 1.36491e-05)
(0.511552 -0.116486 1.22548e-05)
(0.511535 -0.080333 9.86216e-06)
(0.511534 -0.0803327 1.10486e-05)
(0.519231 -0.0774303 1.15509e-05)
(0.514588 -0.079953 1.12602e-05)
(0.514586 -0.0799519 1.23976e-05)
(0.51923 -0.0774318 1.03429e-05)
(0.469964 -0.0789219 5.87722e-06)
(0.544743 -0.0391398 1.16076e-05)
(0.544744 -0.0391414 8.275e-06)
(0.469965 -0.078923 6.59365e-06)
(0.544747 -0.0391397 5.02029e-06)
(0.544742 -0.0391414 8.71803e-06)
(0.511536 -0.0803331 9.27343e-06)
(0.511556 -0.116487 7.48742e-06)
(0.511536 -0.0803329 7.77099e-06)
(0.519234 -0.0774306 7.27217e-06)
(0.514589 -0.0799527 9.48106e-06)
(0.519231 -0.0774319 8.76823e-06)
(0.514588 -0.0799529 7.82368e-06)
(0.511555 -0.116487 6.02048e-06)
(0.511535 -0.080332 2.05714e-06)
(0.511536 -0.0803328 5.47605e-06)
(0.519234 -0.0774305 6.16096e-06)
(0.514591 -0.0799526 3.73076e-06)
(0.514589 -0.0799521 6.1057e-06)
(0.51923 -0.0774311 3.61492e-06)
(0.469973 -0.078921 1.92894e-06)
(0.544748 -0.0391389 4.72969e-06)
(0.544748 -0.03914 2.49587e-06)
(0.46997 -0.0789227 4.87178e-06)
(0.544748 -0.0391394 8.09878e-07)
(0.544745 -0.0391408 4.05446e-06)
(0.51153 -0.0803261 -6.25489e-06)
(0.511568 -0.116481 4.67516e-06)
(0.511523 -0.0802866 2.68729e-06)
(0.519225 -0.0774085 2.15827e-06)
(0.514592 -0.0799497 9.41328e-07)
(0.519227 -0.0774269 -1.21349e-06)
(0.514593 -0.079945 2.76723e-06)
(0.511562 -0.116484 6.68764e-06)
(0.511537 -0.0803322 3.00206e-06)
(0.511532 -0.0803265 1.14204e-05)
(0.519231 -0.0774256 6.44682e-06)
(0.514592 -0.0799525 2.67054e-06)
(0.514591 -0.0799491 4.91945e-06)
(0.519232 -0.0774311 2.40854e-06)
(0.469967 -0.0789223 -4.50335e-06)
(0.544747 -0.0391401 2.69114e-07)
(0.544746 -0.0391417 -3.11262e-06)
(0.469966 -0.0789236 -3.76931e-06)
(0.544745 -0.0391404 -6.57958e-06)
(0.544743 -0.0391426 -2.8492e-06)
(0.511538 -0.0803332 2.49347e-07)
(0.511558 -0.116488 -2.57167e-06)
(0.511538 -0.0803333 -1.716e-06)
(0.519236 -0.0774311 -2.29378e-06)
(0.514592 -0.0799533 -1.54939e-07)
(0.519233 -0.0774321 -4.87683e-07)
(0.51459 -0.0799534 -2.0775e-06)
(0.511557 -0.116488 -4.0087e-06)
(0.511539 -0.0803335 -5.22571e-06)
(0.511538 -0.0803335 -3.84973e-06)
(0.519236 -0.0774311 -3.29459e-06)
(0.514592 -0.0799534 -4.99569e-06)
(0.514591 -0.0799529 -3.55808e-06)
(0.519233 -0.0774322 -4.71337e-06)
(0.469965 -0.0789224 -1.10912e-05)
(0.544746 -0.0391408 -7.00061e-06)
(0.544743 -0.0391421 -1.02162e-05)
(0.469965 -0.0789234 -1.02504e-05)
(0.544742 -0.0391401 -1.3605e-05)
(0.544741 -0.0391427 -9.88465e-06)
(0.511538 -0.0803335 -5.86358e-06)
(0.511557 -0.116487 -8.91362e-06)
(0.511537 -0.0803333 -7.23745e-06)
(0.519235 -0.077431 -7.73821e-06)
(0.514591 -0.0799536 -6.74562e-06)
(0.519233 -0.0774323 -6.37851e-06)
(0.514589 -0.0799532 -8.17733e-06)
(0.511556 -0.116488 -1.02163e-05)
(0.511536 -0.0803332 -1.04662e-05)
(0.511536 -0.0803332 -9.16664e-06)
(0.519234 -0.0774307 -8.59036e-06)
(0.51459 -0.0799529 -1.08382e-05)
(0.514589 -0.0799526 -9.47226e-06)
(0.519231 -0.0774319 -9.95078e-06)
(0.469962 -0.0789212 -1.76429e-05)
(0.544743 -0.0391404 -1.41478e-05)
(0.54474 -0.0391412 -1.74617e-05)
(0.469961 -0.078922 -1.69773e-05)
(0.544739 -0.0391385 -2.0879e-05)
(0.544738 -0.0391412 -1.69917e-05)
(0.511535 -0.080333 -1.1073e-05)
(0.511553 -0.116486 -1.50718e-05)
(0.511534 -0.0803326 -1.25128e-05)
(0.519231 -0.0774302 -1.29326e-05)
(0.514589 -0.0799529 -1.2642e-05)
(0.51923 -0.0774318 -1.15445e-05)
(0.514585 -0.0799523 -1.41267e-05)
(0.511551 -0.116486 -1.67756e-05)
(0.511529 -0.0803309 -1.82039e-05)
(0.511532 -0.080332 -1.4796e-05)
(0.519229 -0.0774295 -1.4033e-05)
(0.514584 -0.0799509 -1.83016e-05)
(0.514585 -0.0799515 -1.58762e-05)
(0.519224 -0.07743 -1.65933e-05)
(0.469963 -0.0789186 -2.12501e-05)
(0.54474 -0.0391381 -2.12552e-05)
(0.544736 -0.0391383 -2.32507e-05)
(0.469959 -0.0789199 -1.81043e-05)
(0.54473 -0.0391372 -2.48059e-05)
(0.544732 -0.0391392 -2.15035e-05)
(0.511523 -0.0803246 -2.64318e-05)
(0.511558 -0.116477 -1.75043e-05)
(0.511514 -0.080284 -1.69936e-05)
(0.519215 -0.0774062 -1.74192e-05)
(0.514584 -0.0799482 -2.09211e-05)
(0.519219 -0.0774254 -2.12075e-05)
(0.514583 -0.0799425 -1.86295e-05)
(0.51155 -0.116482 -1.52015e-05)
(0.511524 -0.0803298 -1.59992e-05)
(0.511521 -0.0803243 -7.76701e-06)
(0.519219 -0.0774233 -1.27849e-05)
(0.514578 -0.0799489 -1.84364e-05)
(0.514579 -0.0799464 -1.62089e-05)
(0.519218 -0.0774284 -1.65807e-05)
(0.469948 -0.0789182 -2.67932e-05)
(0.54473 -0.0391386 -2.55951e-05)
(0.544723 -0.0391392 -2.8861e-05)
(0.469946 -0.078919 -2.55938e-05)
(0.544716 -0.0391373 -3.1529e-05)
(0.544719 -0.0391399 -2.79819e-05)
(0.511523 -0.0803304 -1.8183e-05)
(0.511538 -0.116482 -2.3541e-05)
(0.511521 -0.0803303 -1.94485e-05)
(0.519218 -0.0774276 -1.98911e-05)
(0.514575 -0.0799503 -2.08234e-05)
(0.519217 -0.0774293 -1.88526e-05)
(0.514571 -0.0799492 -2.21462e-05)
(0.511536 -0.116483 -2.44926e-05)