/*--------------------------------*- C++ -*----------------------------------*\
  =========                 |
  \\      /  F ield         | OpenFOAM: The Open Source CFD Toolbox
   \\    /   O peration     | Website:  https://openfoam.org
    \\  /    A nd           | Version:  10
     \\/     M anipulation  |
\*---------------------------------------------------------------------------*/
FoamFile
{
    format      ascii;
    class       volScalarField;
    location    "2000";
    object      k;
}
// * * * * * * * * * * * * * * * * * * * * * * * * * * * * * * * * * * * * * //

dimensions      [0 2 -2 0 0 0 0];

internalField   nonuniform List<scalar> 
55398
(
0.234132
0.211849
0.197999
0.212413
0.257639
0.513048
0.228314
0.207314
0.190147
0.175793
0.163765
0.156725
0.205033
0.602964
2.31275
5.15
6.60658
7.2874
6.4906
5.40893
0.218524
0.20037
0.185056
0.172203
0.162051
0.157364
0.181268
0.292005
1.148
6.93892
6.65755
4.90504
3.5348
2.17672
1.36292
0.218567
0.200508
0.185249
0.172416
0.162218
0.156551
0.167282
0.204762
0.330273
0.558458
0.896457
0.54906
0.308402
0.273982
0.245349
0.215633
0.195
0.178902
0.218712
0.200745
0.185524
0.172676
0.162253
0.15552
0.157836
0.185013
0.227184
0.249383
0.267597
0.243537
0.213437
0.176523
0.162175
0.151523
0.142945
0.133453
0.125985
0.119234
0.218859
0.20099
0.185815
0.172943
0.162316
0.15456
0.152626
0.163215
0.173206
0.176839
0.178294
0.167401
0.15777
0.148302
0.138628
0.131042
0.124756
0.118097
0.112531
0.107504
0.218997
0.201222
0.186096
0.17316
0.162455
0.153972
0.149248
0.151455
0.154324
0.154985
0.151385
0.145269
0.138612
0.131286
0.12455
0.118773
0.113743
0.108521
0.103971
0.0996967
0.219123
0.201435
0.186359
0.173489
0.162583
0.153747
0.147569
0.145139
0.143765
0.141783
0.137789
0.132781
0.127397
0.121541
0.116204
0.111313
0.106926
0.102471
0.098479
0.0947204
0.219126
0.201562
0.18659
0.173797
0.162847
0.15378
0.146647
0.141898
0.138229
0.134623
0.130248
0.125534
0.120524
0.115443
0.110707
0.106409
0.102412
0.0984547
0.094795
0.0914015
0.21936
0.201816
0.186835
0.173993
0.163035
0.153822
0.146237
0.140334
0.135416
0.130808
0.126057
0.121297
0.11659
0.11194
0.107595
0.103547
0.0997646
0.0960655
0.0926222
0.0893492
0.219459
0.201986
0.187048
0.174223
0.16324
0.153921
0.146038
0.13952
0.133909
0.128748
0.123732
0.118873
0.114264
0.109799
0.105618
0.101683
0.0980405
0.094494
0.0911748
0.087998
0.219549
0.202141
0.187244
0.174441
0.163447
0.154044
0.146003
0.139141
0.133146
0.12764
0.122414
0.117492
0.112886
0.108567
0.104419
0.100585
0.0969945
0.0935476
0.0903092
0.0871901
0.219633
0.202285
0.187428
0.174647
0.163655
0.154198
0.146047
0.138983
0.132758
0.127026
0.121666
0.11668
0.112049
0.10773
0.103678
0.099884
0.0963219
0.0929268
0.0897334
0.0866508
0.219711
0.20242
0.187599
0.174843
0.163899
0.154354
0.146133
0.138947
0.132562
0.126712
0.121235
0.116175
0.111543
0.107227
0.103196
0.0994399
0.0959043
0.0925501
0.0893932
0.0863388
0.219785
0.202547
0.187762
0.175029
0.164047
0.154529
0.146256
0.139007
0.132516
0.126578
0.121033
0.115959
0.111282
0.106967
0.102952
0.0992121
0.09569
0.0923582
0.0892212
0.0861837
0.219855
0.202667
0.187916
0.175203
0.164201
0.1547
0.146401
0.139103
0.132556
0.126558
0.121008
0.115906
0.111214
0.106896
0.102894
0.0991476
0.0956316
0.0923103
0.0891865
0.0861623
0.219921
0.202782
0.188061
0.175368
0.164391
0.154863
0.146559
0.13924
0.132672
0.126652
0.121085
0.115971
0.111268
0.106942
0.102932
0.0991897
0.0956718
0.0923524
0.0892289
0.086207
0.219966
0.202857
0.188152
0.175465
0.16448
0.154946
0.146625
0.139308
0.132718
0.126695
0.121117
0.116005
0.111298
0.106968
0.102961
0.0992087
0.0956817
0.0923543
0.0892241
0.0861986
0.234134
0.210946
0.192566
0.184193
0.228142
0.335789
0.228309
0.207315
0.190163
0.175692
0.16368
0.156367
0.19094
0.444461
2.71917
5.02521
6.56372
7.31437
6.65413
5.38837
0.218501
0.200329
0.185073
0.172195
0.162049
0.157264
0.179737
0.283439
2.11548
6.21579
6.91838
5.48573
2.39364
2.28793
1.19704
0.218574
0.200507
0.18525
0.172419
0.162241
0.156508
0.166343
0.201391
0.346518
0.455814
0.929674
0.324688
0.285664
0.261521
0.240847
0.217961
0.197482
0.178328
0.218721
0.200745
0.185526
0.17268
0.162254
0.155481
0.157312
0.182844
0.223045
0.244515
0.251355
0.240775
0.195629
0.177443
0.162102
0.151188
0.142567
0.133224
0.125508
0.118475
0.218867
0.20099
0.185817
0.172948
0.162318
0.154528
0.152392
0.161878
0.172001
0.175749
0.173766
0.167217
0.158266
0.147951
0.138375
0.130844
0.124552
0.117907
0.112185
0.106912
0.219005
0.201223
0.186098
0.173197
0.162441
0.153993
0.149127
0.150934
0.153568
0.154251
0.150801
0.145073
0.138616
0.131208
0.124709
0.118779
0.11365
0.108499
0.103755
0.0993603
0.219132
0.201436
0.186361
0.17349
0.162608
0.153713
0.147476
0.14488
0.143365
0.141345
0.137386
0.132585
0.127312
0.121461
0.116162
0.111236
0.106817
0.10241
0.098334
0.0944926
0.219194
0.201577
0.186575
0.173758
0.16284
0.153791
0.146628
0.141809
0.138053
0.134407
0.130034
0.125393
0.120437
0.115389
0.11072
0.10636
0.10235
0.0984146
0.0947249
0.0912483
0.21936
0.201818
0.186836
0.173995
0.163038
0.15384
0.146224
0.140308
0.13534
0.130713
0.125958
0.121229
0.116532
0.111896
0.107583
0.103511
0.09972
0.0960338
0.0925694
0.0892577
0.219458
0.201987
0.18705
0.174227
0.163245
0.153957
0.14604
0.139516
0.133894
0.128709
0.123679
0.1188
0.11422
0.109767
0.105609
0.101673
0.0980063
0.0944727
0.0911451
0.0879473
0.219549
0.202141
0.187246
0.174444
0.163451
0.154049
0.146025
0.139163
0.133147
0.127626
0.122395
0.117466
0.112849
0.108573
0.104396
0.100567
0.0969731
0.0935311
0.0902882
0.0871567
0.219632
0.202285
0.187429
0.17465
0.163658
0.154202
0.146068
0.139007
0.132761
0.127026
0.121659
0.116665
0.112026
0.107717
0.103678
0.0998752
0.0963116
0.0929177
0.0897226
0.086633
0.219711
0.20242
0.187601
0.174846
0.163898
0.154369
0.146156
0.138972
0.132573
0.126715
0.121232
0.116159
0.111533
0.107222
0.103195
0.0994374
0.0958996
0.0925436
0.0893863
0.086329
0.219784
0.202547
0.187763
0.17503
0.16405
0.154543
0.146277
0.139029
0.132528
0.126583
0.121033
0.115957
0.111277
0.106965
0.102952
0.0992113
0.0956873
0.0923525
0.0892164
0.0861787
0.219854
0.202667
0.187916
0.175204
0.164212
0.154703
0.146413
0.139118
0.132565
0.126563
0.121011
0.115906
0.11121
0.106894
0.102891
0.0991503
0.0956311
0.0923064
0.0891828
0.0861591
0.21992
0.202782
0.188062
0.175368
0.16439
0.154869
0.146566
0.139249
0.132679
0.126655
0.121087
0.115971
0.111264
0.106941
0.102932
0.0991898
0.0956702
0.0923473
0.0892254
0.0862048
0.219965
0.202857
0.188152
0.175464
0.164478
0.154947
0.146627
0.139311
0.132721
0.126697
0.121118
0.116005
0.111294
0.106967
0.102963
0.0992059
0.095679
0.0923492
0.0892209
0.0861977
0.23419
0.211017
0.191681
0.175469
0.181256
0.257114
0.228307
0.207318
0.190185
0.175642
0.163362
0.155473
0.178086
0.370892
2.85628
4.59955
6.06658
7.33859
6.618
5.49852
0.218494
0.200326
0.185068
0.172181
0.162029
0.157133
0.176556
0.266771
3.69481
5.63457
7.12207
6.38984
2.67244
2.37429
1.37652
0.218579
0.200508
0.185253
0.172417
0.162239
0.156464
0.165774
0.198994
0.301315
0.389249
0.916217
0.3068
0.272609
0.250046
0.232641
0.218013
0.202443
0.183761
0.218726
0.200746
0.185529
0.172678
0.162248
0.155463
0.157352
0.182213
0.219302
0.241202
0.247828
0.236452
0.193156
0.175998
0.162279
0.151244
0.142196
0.133123
0.125424
0.118586
0.218872
0.20099
0.18582
0.172947
0.162313
0.154526
0.152472
0.16182
0.172074
0.175583
0.172985
0.166772
0.1574
0.147238
0.138468
0.130907
0.124362
0.117827
0.112085
0.106895
0.21901
0.201223
0.186101
0.17321
0.162434
0.154026
0.149203
0.150961
0.153722
0.154328
0.150647
0.145041
0.138685
0.131012
0.124642
0.118808
0.113546
0.108399
0.103577
0.0993016
0.219137
0.201437
0.186365
0.173489
0.162612
0.153784
0.147483
0.144886
0.143437
0.141389
0.137375
0.132592
0.127336
0.121396
0.116112
0.111209
0.106707
0.102304
0.0981983
0.0944344
0.219228
0.201597
0.18658
0.173739
0.162823
0.15379
0.146638
0.141812
0.138081
0.134422
0.130029
0.125345
0.120467
0.11535
0.110706
0.106351
0.102294
0.0983538
0.0946515
0.0912053
0.219362
0.201817
0.186839
0.173995
0.163033
0.153841
0.14623
0.140304
0.135343
0.130718
0.125955
0.121183
0.116541
0.111864
0.107563
0.103496
0.0996788
0.095989
0.0925165
0.0892299
0.21946
0.201986
0.187053
0.174228
0.163242
0.153943
0.146058
0.139524
0.133896
0.128713
0.123674
0.11877
0.114232
0.109747
0.105597
0.101669
0.0979833
0.0944453
0.0911143
0.0879314
0.21955
0.202141
0.187249
0.174446
0.163449
0.154059
0.146024
0.139155
0.133147
0.127629
0.122394
0.117462
0.112861
0.108535
0.104386
0.100559
0.0969572
0.0935113
0.0902667
0.0871453
0.219633
0.202285
0.187432
0.174651
0.163657
0.15421
0.146067
0.138999
0.13276
0.127029
0.121659
0.116664
0.112034
0.107703
0.103656
0.0998617
0.096301
0.0929052
0.0897105
0.0866274
0.219712
0.202419
0.187604
0.174848
0.163887
0.15438
0.146158
0.138967
0.132575
0.126717
0.121232
0.116173
0.111524
0.107235
0.103174
0.0994255
0.0958938
0.0925354
0.0893789
0.0863257
0.219785
0.202546
0.187766
0.175033
0.164058
0.154541
0.146274
0.139023
0.132529
0.126584
0.121033
0.115958
0.111276
0.106964
0.102949
0.0992094
0.0956882
0.0923487
0.0892128
0.086177
0.219855
0.202667
0.187919
0.175206
0.164222
0.154701
0.14641
0.139112
0.132566
0.126564
0.121011
0.115907
0.111208
0.106893
0.102887
0.0991503
0.095634
0.0923044
0.0891808
0.086158
0.219921
0.202781
0.188065
0.17537
0.164394
0.154868
0.146565
0.139245
0.132679
0.126656
0.121087
0.115972
0.111261
0.106939
0.102929
0.0991904
0.0956724
0.0923444
0.0892231
0.0862035
0.219966
0.202857
0.188155
0.175466
0.16448
0.154946
0.146626
0.139309
0.132722
0.126698
0.121119
0.116006
0.111291
0.106965
0.102965
0.0992034
0.0956792
0.0923453
0.0892186
0.0861963
0.234189
0.211326
0.192261
0.1746
0.177825
0.247436
0.228306
0.207323
0.190195
0.175622
0.163033
0.154529
0.169663
0.33248
3.30904
4.52843
5.37639
7.32094
6.66834
5.69467
0.21849
0.200324
0.185067
0.172173
0.162006
0.157012
0.17393
0.251362
4.51162
4.27202
6.41348
6.8424
2.99144
2.63731
1.59361
0.218581
0.200509
0.185254
0.172415
0.162235
0.156423
0.164975
0.195767
0.281168
0.372692
1.05678
0.303446
0.264425
0.24002
0.223518
0.218313
0.208653
0.190366
0.218728
0.200747
0.18553
0.172678
0.162245
0.155446
0.157211
0.181141
0.215412
0.235203
0.241207
0.230797
0.191287
0.176238
0.162737
0.151453
0.142106
0.133455
0.125723
0.118822
0.218874
0.200991
0.185821
0.172947
0.162311
0.154518
0.152475
0.161577
0.171655
0.175081
0.172418
0.166319
0.156725
0.147426
0.138755
0.131092
0.124361
0.118027
0.112232
0.106974
0.219012
0.201223
0.186102
0.173217
0.162435
0.154042
0.149241
0.150949
0.153701
0.154326
0.150567
0.144972
0.138143
0.130701
0.124555
0.118783
0.113479
0.10844
0.103683
0.0993333
0.219139
0.201438
0.186366
0.17349
0.162615
0.153815
0.1475
0.144895
0.143461
0.14143
0.137392
0.132624
0.127116
0.121251
0.11608
0.111183
0.10664
0.102303
0.0982179
0.0944208
0.219243
0.201613
0.186589
0.173734
0.162814
0.153787
0.146638
0.141814
0.138094
0.134441
0.130043
0.125336
0.120425
0.115266
0.110694
0.106343
0.102264
0.098356
0.094663
0.0911923
0.219362
0.201817
0.186841
0.173995
0.16303
0.15384
0.146231
0.140302
0.135345
0.130724
0.125958
0.121157
0.116546
0.111845
0.107568
0.103492
0.0996574
0.0959844
0.0925147
0.0892171
0.21946
0.201986
0.187055
0.174229
0.163241
0.153938
0.146062
0.139528
0.133899
0.128717
0.123674
0.118776
0.114216
0.109722
0.105595
0.101669
0.097973
0.0944428
0.0911111
0.0879228
0.21955
0.202141
0.187251
0.174447
0.163448
0.154063
0.146025
0.139152
0.133146
0.12763
0.122394
0.117462
0.112855
0.108483
0.10441
0.100568
0.0969548
0.09351
0.0902624
0.0871382
0.219634
0.202285
0.187434
0.174653
0.163657
0.154213
0.146067
0.138996
0.132758
0.127029
0.121659
0.116664
0.112031
0.107685
0.103656
0.0998654
0.096299
0.0929039
0.0897067
0.0866231
0.219712
0.202419
0.187605
0.17485
0.163882
0.154382
0.146159
0.138964
0.132575
0.126718
0.121232
0.11618
0.11152
0.107226
0.103161
0.0994196
0.0958899
0.0925327
0.0893742
0.086322
0.219786
0.202547
0.187767
0.175034
0.164063
0.154541
0.146273
0.13902
0.132528
0.126585
0.121033
0.115958
0.111275
0.106956
0.102934
0.099206
0.0956887
0.0923486
0.0892097
0.086175
0.219856
0.202667
0.187921
0.175208
0.164228
0.154702
0.146408
0.139109
0.132564
0.126564
0.121011
0.115907
0.111208
0.106889
0.102874
0.0991479
0.0956359
0.0923054
0.0891785
0.0861565
0.219922
0.202781
0.188066
0.175372
0.164396
0.154869
0.146565
0.139244
0.132678
0.126656
0.121087
0.115972
0.111262
0.106937
0.102918
0.0991899
0.0956751
0.0923451
0.0892206
0.0862019
0.219967
0.202857
0.188157
0.175468
0.164482
0.154947
0.146626
0.139308
0.132721
0.126699
0.12112
0.116006
0.111292
0.106966
0.102962
0.0992016
0.0956804
0.0923444
0.0892152
0.0861942
0.234188
0.211443
0.193015
0.175857
0.178783
0.253242
0.228306
0.207325
0.190199
0.175628
0.162913
0.153937
0.166119
0.356666
4.25999
5.20583
5.08825
7.28666
6.64853
5.94245
0.218487
0.200321
0.185067
0.172171
0.161987
0.15691
0.172659
0.244638
5.56093
3.05625
4.92718
6.34931
3.06535
2.81781
1.81008
0.218582
0.20051
0.185255
0.172414
0.16223
0.156388
0.164359
0.192548
0.267856
0.357835
1.44264
0.319327
0.267028
0.235628
0.216254
0.215877
0.212029
0.196265
0.218729
0.200747
0.185531
0.172678
0.162245
0.155434
0.15702
0.179837
0.211528
0.229243
0.234865
0.225876
0.189327
0.175389
0.162555
0.151466
0.142067
0.133616
0.125959
0.119068
0.218875
0.200992
0.185822
0.172947
0.162311
0.154514
0.152436
0.161175
0.170917
0.174208
0.171743
0.165784
0.156126
0.147209
0.138793
0.131212
0.124428
0.11816
0.112371
0.107082
0.219013
0.201224
0.186103
0.17322
0.162437
0.154049
0.149251
0.150872
0.153541
0.154157
0.150457
0.14486
0.137813
0.130981
0.124665
0.118827
0.113467
0.108453
0.10374
0.0993757
0.21914
0.201438
0.186367
0.173491
0.162617
0.15383
0.147512
0.144893
0.143443
0.141422
0.137411
0.132643
0.127011
0.121438
0.116171
0.111219
0.106625
0.102294
0.0982222
0.0944155
0.21925
0.201623
0.186597
0.173736
0.162812
0.153786
0.146638
0.141813
0.138094
0.134448
0.130059
0.125343
0.120423
0.115297
0.110711
0.10635
0.102254
0.0983517
0.0946659
0.0911868
0.219362
0.201818
0.186842
0.173996
0.163029
0.15384
0.146231
0.1403
0.135343
0.130726
0.125963
0.121147
0.116543
0.111887
0.107598
0.103508
0.0996543
0.0959798
0.0925106
0.0892082
0.21946
0.201986
0.187055
0.17423
0.163241
0.153935
0.146063
0.139529
0.1339
0.12872
0.123676
0.118779
0.11421
0.109734
0.105604
0.101675
0.0979713
0.0944405
0.0911081
0.0879165
0.21955
0.202141
0.187251
0.174448
0.163448
0.154065
0.146026
0.139151
0.133145
0.12763
0.122395
0.117463
0.112852
0.108476
0.104421
0.100579
0.0969588
0.093511
0.0902604
0.0871334
0.219634
0.202285
0.187434
0.174654
0.163657
0.154215
0.146068
0.138994
0.132756
0.127029
0.121659
0.116665
0.112029
0.107684
0.103661
0.0998707
0.0963004
0.0929038
0.0897047
0.0866198
0.219713
0.20242
0.187606
0.174851
0.163881
0.154382
0.14616
0.138964
0.132574
0.126719
0.121232
0.116183
0.11152
0.107205
0.103177
0.0994261
0.0958912
0.0925321
0.0893716
0.0863186
0.219786
0.202547
0.187768
0.175036
0.164066
0.154542
0.146273
0.139019
0.132527
0.126584
0.121033
0.115958
0.111276
0.106953
0.102937
0.0992069
0.0956893
0.0923489
0.0892084
0.0861733
0.219856
0.202667
0.187922
0.175209
0.164231
0.154704
0.146408
0.139108
0.132563
0.126563
0.121011
0.115907
0.11121
0.106887
0.102873
0.0991475
0.0956366
0.092306
0.0891777
0.0861554
0.219922
0.202782
0.188067
0.175373
0.164398
0.15487
0.146565
0.139243
0.132678
0.126656
0.121087
0.115972
0.111264
0.106935
0.102916
0.0991894
0.0956761
0.0923458
0.0892197
0.0862006
0.219967
0.202857
0.188157
0.175469
0.164483
0.154948
0.146626
0.139307
0.132721
0.126698
0.12112
0.116007
0.111295
0.106971
0.102959
0.0992
0.0956802
0.092344
0.0892134
0.0861921
0.234189
0.211468
0.193405
0.177168
0.18093
0.257431
0.228306
0.207326
0.190201
0.175642
0.162964
0.153789
0.166123
0.40131
5.61343
6.75038
5.66094
7.53573
6.5574
6.24697
0.218485
0.200319
0.185066
0.172173
0.161983
0.156862
0.17268
0.249269
6.37976
2.52403
3.33891
5.00325
2.80939
2.78388
1.9638
0.218582
0.20051
0.185255
0.172414
0.162229
0.156367
0.164106
0.191662
0.26484
0.362154
1.60865
0.335923
0.274631
0.236121
0.212265
0.211366
0.211321
0.199671
0.218729
0.200748
0.185532
0.172678
0.162245
0.155427
0.156887
0.178978
0.208923
0.224862
0.229758
0.221469
0.187221
0.174067
0.161893
0.151195
0.141915
0.133637
0.126107
0.119275
0.218875
0.200992
0.185823
0.172947
0.162312
0.154511
0.152394
0.160808
0.170159
0.173197
0.170885
0.165123
0.155524
0.146823
0.13864
0.131207
0.124467
0.118229
0.112472
0.107186
0.219013
0.201224
0.186104
0.173221
0.162439
0.154053
0.149249
0.150769
0.153316
0.153868
0.150257
0.144704
0.137611
0.131007
0.124742
0.118892
0.113492
0.108467
0.10377
0.0994094
0.21914
0.201439
0.186368
0.173491
0.162619
0.153838
0.147519
0.144878
0.143398
0.141365
0.1374
0.13264
0.126962
0.121511
0.116264
0.111289
0.106653
0.102302
0.0982255
0.0944128
0.219254
0.201629
0.186604
0.17374
0.162812
0.153787
0.146639
0.14181
0.138086
0.13444
0.130066
0.125354
0.120428
0.115324
0.11074
0.106372
0.10226
0.0983518
0.0946657
0.0911835
0.219362
0.201818
0.186843
0.173996
0.163029
0.15384
0.146231
0.140299
0.13534
0.130722
0.125967
0.121143
0.116541
0.111909
0.107628
0.103533
0.0996659
0.0959823
0.0925084
0.0892017
0.21946
0.201986
0.187055
0.174231
0.163241
0.153934
0.146062
0.139529
0.133899
0.12872
0.123679
0.118782
0.114209
0.109741
0.105614
0.101684
0.0979756
0.0944413
0.0911064
0.087912
0.21955
0.202141
0.187252
0.174449
0.163448
0.154065
0.146028
0.139151
0.133144
0.12763
0.122396
0.117463
0.112852
0.108474
0.104428
0.100588
0.0969656
0.0935143
0.0902605
0.0871307
0.219634
0.202285
0.187435
0.174655
0.163658
0.154216
0.146069
0.138994
0.132755
0.127029
0.121659
0.116665
0.112028
0.107683
0.103666
0.0998763
0.0963041
0.0929053
0.0897041
0.0866176
0.219713
0.20242
0.187606
0.174851
0.163881
0.154382
0.14616
0.138963
0.132574
0.126719
0.121233
0.116184
0.111521
0.107195
0.103183
0.0994324
0.0958953
0.0925338
0.089371
0.0863165
0.219786
0.202547
0.187769
0.175037
0.164068
0.154543
0.146273
0.139018
0.132526
0.126584
0.121033
0.115958
0.111276
0.10695
0.102941
0.0992095
0.095691
0.0923498
0.0892082
0.0861722
0.219856
0.202667
0.187922
0.175209
0.164233
0.154705
0.146409
0.139107
0.132562
0.126563
0.12101
0.115907
0.111211
0.106884
0.102875
0.099149
0.0956377
0.0923068
0.0891775
0.0861547
0.219922
0.202782
0.188068
0.175374
0.164399
0.154871
0.146566
0.139243
0.132677
0.126655
0.121087
0.115972
0.111266
0.106932
0.102918
0.0991904
0.0956771
0.0923466
0.0892196
0.0861998
0.219967
0.202857
0.188158
0.175469
0.164484
0.154949
0.146626
0.139307
0.13272
0.126698
0.12112
0.116007
0.111297
0.106976
0.102959
0.0991995
0.0956799
0.0923436
0.0892123
0.0861906
0.234189
0.211473
0.193536
0.177921
0.182862
0.259289
0.228306
0.207326
0.190202
0.175658
0.163082
0.153949
0.167332
0.433478
6.87082
8.22517
7.51747
8.35845
6.58724
6.61554
0.218484
0.200317
0.185064
0.172175
0.161989
0.156866
0.173318
0.257958
6.56041
2.5895
2.38053
3.34813
2.26527
2.5002
1.9803
0.218582
0.20051
0.185255
0.172415
0.16223
0.156361
0.164142
0.192766
0.270155
0.376118
1.5609
0.341954
0.279909
0.238089
0.210656
0.205597
0.206172
0.199081
0.218729
0.200748
0.185532
0.172678
0.162246
0.155424
0.15684
0.178825
0.20852
0.223374
0.227078
0.218279
0.185261
0.172614
0.160947
0.150661
0.1416
0.133496
0.126123
0.1194
0.218875
0.200992
0.185823
0.172947
0.162313
0.15451
0.152365
0.16062
0.169684
0.172413
0.170065
0.164426
0.154919
0.146358
0.138374
0.13109
0.124435
0.118251
0.112533
0.107268
0.219013
0.201224
0.186104
0.173222
0.162441
0.154055
0.149243
0.150688
0.153117
0.153573
0.149999
0.144497
0.137424
0.130939
0.124767
0.118945
0.113534
0.108491
0.10379
0.0994335
0.21914
0.201439
0.186368
0.173492
0.16262
0.153842
0.147522
0.144858
0.143347
0.141282
0.137353
0.132612
0.12692
0.121526
0.116329
0.111363
0.106707
0.102332
0.0982393
0.0944163
0.219255
0.201632
0.186609
0.173744
0.162815
0.15379
0.146641
0.141806
0.138076
0.134421
0.130061
0.125358
0.120432
0.115343
0.110771
0.106403
0.102281
0.0983617
0.0946685
0.0911821
0.219362
0.201818
0.186843
0.173997
0.16303
0.153841
0.146232
0.140298
0.135337
0.130716
0.125967
0.121141
0.116539
0.11192
0.107653
0.103561
0.0996872
0.0959936
0.0925114
0.0891987
0.21946
0.201985
0.187055
0.174231
0.163241
0.153934
0.146062
0.139529
0.133899
0.128718
0.12368
0.118785
0.11421
0.109746
0.105625
0.101695
0.0979843
0.0944458
0.0911071
0.0879096
0.21955
0.20214
0.187252
0.174449
0.163449
0.154066
0.146028
0.139151
0.133143
0.127628
0.122396
0.117464
0.112852
0.108474
0.104434
0.100597
0.0969743
0.09352
0.0902627
0.08713
0.219634
0.202285
0.187435
0.174655
0.163658
0.154217
0.14607
0.138994
0.132755
0.127028
0.12166
0.116665
0.112028
0.107682
0.10367
0.0998819
0.0963091
0.0929085
0.0897051
0.0866168
0.219713
0.20242
0.187607
0.174852
0.163881
0.154382
0.14616
0.138963
0.132573
0.126718
0.121233
0.116185
0.111522
0.107191
0.103185
0.0994372
0.0959
0.092537
0.0893722
0.086316
0.219786
0.202547
0.187769
0.175037
0.164069
0.154544
0.146274
0.139019
0.132526
0.126584
0.121033
0.115958
0.111276
0.106947
0.102944
0.0992126
0.0956935
0.0923515
0.0892088
0.086172
0.219856
0.202667
0.187922
0.17521
0.164234
0.154707
0.14641
0.139107
0.132562
0.126562
0.12101
0.115907
0.111211
0.106882
0.102878
0.0991513
0.0956395
0.0923081
0.089178
0.0861546
0.219922
0.202782
0.188068
0.175374
0.1644
0.154872
0.146567
0.139243
0.132677
0.126655
0.121087
0.115972
0.111266
0.106929
0.102921
0.0991925
0.0956787
0.0923478
0.0892201
0.0861995
0.219967
0.202857
0.188158
0.17547
0.164485
0.154949
0.146627
0.139307
0.132719
0.126697
0.12112
0.116007
0.111298
0.10698
0.102962
0.0992011
0.0956807
0.0923438
0.0892119
0.0861895
0.234189
0.211474
0.19357
0.178227
0.183891
0.260299
0.228306
0.207327
0.190203
0.175669
0.163194
0.154224
0.168572
0.448375
7.54834
8.76052
8.94251
9.38351
7.08788
7.06546
0.218483
0.200316
0.185062
0.172175
0.161996
0.156901
0.174052
0.264826
5.79178
3.00858
2.05788
2.22353
1.68673
2.04386
1.83392
0.218582
0.20051
0.185255
0.172415
0.162231
0.156366
0.164323
0.194469
0.277784
0.392324
1.52348
0.34284
0.282412
0.239676
0.210192
0.200169
0.198363
0.194432
0.218729
0.200748
0.185532
0.172678
0.162247
0.155424
0.156858
0.179167
0.209736
0.224587
0.227203
0.216935
0.183859
0.171332
0.159932
0.149961
0.141134
0.133171
0.125969
0.119396
0.218875
0.200992
0.185823
0.172947
0.162314
0.154511
0.152357
0.160618
0.169583
0.172075
0.169528
0.163859
0.15438
0.145876
0.138044
0.130891
0.124329
0.118222
0.112549
0.107318
0.219013
0.201224
0.186104
0.173223
0.162442
0.154057
0.14924
0.150652
0.153007
0.153368
0.149768
0.144278
0.137229
0.130813
0.12474
0.118973
0.113576
0.108522
0.10381
0.0994513
0.21914
0.201439
0.186368
0.173492
0.162621
0.153844
0.147524
0.144843
0.143306
0.141208
0.137286
0.132567
0.126873
0.121506
0.116356
0.111419
0.106766
0.102376
0.0982658
0.0944288
0.219256
0.201634
0.186611
0.173747
0.162817
0.153792
0.146642
0.141803
0.138067
0.134401
0.130047
0.125352
0.120431
0.115352
0.110795
0.106435
0.10231
0.0983814
0.0946782
0.0911845
0.219362
0.201818
0.186843
0.173998
0.163031
0.153842
0.146233
0.140298
0.135336
0.130709
0.125963
0.121139
0.116537
0.111924
0.10767
0.103586
0.0997124
0.0960118
0.092521
0.0892009
0.21946
0.201985
0.187056
0.174231
0.163241
0.153934
0.146063
0.139529
0.133899
0.128715
0.123679
0.118786
0.114211
0.109749
0.105633
0.101707
0.0979955
0.0944538
0.091111
0.08791
0.21955
0.20214
0.187252
0.174449
0.163449
0.154066
0.146029
0.139152
0.133144
0.127627
0.122395
0.117465
0.112852
0.108475
0.104438
0.100606
0.0969836
0.0935276
0.0902672
0.0871314
0.219634
0.202285
0.187435
0.174655
0.163659
0.154218
0.146071
0.138995
0.132755
0.127027
0.121659
0.116666
0.112028
0.107682
0.103672
0.0998865
0.0963145
0.0929129
0.0897076
0.0866174
0.219713
0.20242
0.187607
0.174852
0.163881
0.154382
0.146161
0.138963
0.132573
0.126718
0.121233
0.116186
0.111523
0.107189
0.103186
0.0994404
0.0959041
0.0925406
0.0893746
0.0863169
0.219786
0.202547
0.187769
0.175037
0.16407
0.154545
0.146275
0.139019
0.132526
0.126584
0.121033
0.115958
0.111277
0.106947
0.102945
0.0992149
0.0956961
0.0923536
0.0892101
0.0861724
0.219856
0.202667
0.187922
0.17521
0.164235
0.154708
0.146411
0.139108
0.132562
0.126562
0.12101
0.115906
0.111211
0.106881
0.102879
0.0991531
0.0956416
0.0923098
0.0891791
0.0861549
0.219922
0.202782
0.188068
0.175374
0.1644
0.154873
0.146567
0.139244
0.132678
0.126655
0.121087
0.115972
0.111266
0.106928
0.102922
0.099194
0.0956805
0.0923493
0.0892211
0.0861998
0.219967
0.202857
0.188158
0.17547
0.164485
0.15495
0.146627
0.139307
0.132719
0.126697
0.12112
0.116007
0.111298
0.106982
0.102965
0.0992031
0.0956822
0.0923448
0.0892122
0.0861891
0.234189
0.211474
0.193577
0.178325
0.184319
0.260479
0.228306
0.207327
0.190204
0.175675
0.163271
0.15448
0.169543
0.453772
7.46737
8.37236
8.47731
9.16929
8.1192
7.7377
0.218483
0.200316
0.185061
0.172175
0.162002
0.156945
0.174672
0.268814
5.3817
3.621
2.14145
1.72574
1.25781
1.57056
1.56937
0.218582
0.20051
0.185255
0.172415
0.162232
0.156376
0.164541
0.195903
0.28367
0.404621
1.53031
0.344224
0.284251
0.240987
0.210285
0.195905
0.190483
0.187293
0.218729
0.200748
0.185532
0.172678
0.162248
0.155426
0.156911
0.179686
0.211431
0.227105
0.229323
0.217429
0.183272
0.170464
0.159055
0.14923
0.140581
0.132767
0.125686
0.119257
0.218875
0.200992
0.185823
0.172947
0.162315
0.154512
0.152363
0.160732
0.169761
0.172156
0.169353
0.163538
0.153993
0.145451
0.137701
0.130648
0.124166
0.118135
0.112512
0.107315
0.219013
0.201224
0.186104
0.173223
0.162443
0.154058
0.149239
0.150658
0.152993
0.153289
0.149621
0.144106
0.137054
0.130659
0.124664
0.118964
0.113602
0.108552
0.103832
0.099466
0.21914
0.201439
0.186369
0.173492
0.162621
0.153846
0.147525
0.144837
0.143285
0.141162
0.137225
0.132517
0.126825
0.121466
0.11635
0.111448
0.106814
0.102423
0.0983004
0.0944494
0.219256
0.201635
0.186613
0.173749
0.162819
0.153794
0.146644
0.1418
0.13806
0.134385
0.130029
0.12534
0.120423
0.115351
0.110808
0.106461
0.102341
0.0984073
0.0946951
0.0911922
0.219362
0.201818
0.186844
0.173998
0.163031
0.153843
0.146234
0.140297
0.135336
0.130704
0.125957
0.121136
0.116533
0.111924
0.107679
0.103606
0.0997365
0.0960334
0.092536
0.0892086
0.21946
0.201985
0.187056
0.174231
0.163242
0.153935
0.146063
0.139529
0.133899
0.128713
0.123677
0.118786
0.114211
0.109751
0.105638
0.101717
0.0980074
0.0944641
0.0911179
0.0879133
0.21955
0.20214
0.187252
0.174449
0.163449
0.154067
0.146029
0.139152
0.133144
0.127626
0.122394
0.117465
0.112852
0.108475
0.104441
0.100612
0.0969924
0.0935362
0.0902736
0.0871348
0.219634
0.202285
0.187435
0.174655
0.163659
0.154218
0.146071
0.138995
0.132755
0.127026
0.121659
0.116666
0.112029
0.107682
0.103674
0.0998901
0.0963194
0.0929177
0.0897112
0.0866194
0.219713
0.20242
0.187607
0.174852
0.163881
0.154383
0.146161
0.138964
0.132573
0.126717
0.121232
0.116186
0.111523
0.107189
0.103187
0.0994426
0.0959075
0.0925442
0.0893776
0.0863188
0.219786
0.202547
0.187769
0.175037
0.16407
0.154546
0.146275
0.139019
0.132526
0.126584
0.121033
0.115958
0.111277
0.106947
0.102946
0.0992166
0.0956984
0.0923558
0.0892118
0.0861734
0.219856
0.202667
0.187922
0.17521
0.164235
0.154708
0.146412
0.139108
0.132562
0.126562
0.12101
0.115906
0.111211
0.10688
0.102879
0.0991543
0.0956433
0.0923116
0.0891805
0.0861558
0.219922
0.202782
0.188068
0.175375
0.164401
0.154873
0.146568
0.139244
0.132678
0.126656
0.121087
0.115972
0.111267
0.106928
0.102922
0.0991951
0.095682
0.0923509
0.0892224
0.0862006
0.219967
0.202857
0.188158
0.17547
0.164486
0.15495
0.146628
0.139307
0.132719
0.126697
0.121119
0.116007
0.111298
0.106983
0.102966
0.099205
0.0956839
0.0923461
0.089213
0.0861894
0.234189
0.211474
0.193578
0.178352
0.184473
0.260425
0.228306
0.207327
0.190204
0.175678
0.163315
0.154662
0.1702
0.45589
6.89665
7.6504
7.36087
7.79216
8.5926
8.31382
0.218483
0.200315
0.185061
0.172175
0.162006
0.156984
0.175131
0.270955
5.77647
4.2903
2.45811
1.6336
1.00685
1.20723
1.27327
0.218582
0.20051
0.185254
0.172415
0.162233
0.156386
0.164738
0.196897
0.287199
0.411029
1.55014
0.346966
0.286506
0.242567
0.210855
0.193114
0.183941
0.179608
0.218729
0.200748
0.185533
0.172678
0.162248
0.155429
0.156974
0.180181
0.212896
0.229609
0.232093
0.219138
0.183471
0.170145
0.158486
0.148611
0.140031
0.13231
0.125307
0.118992
0.218875
0.200992
0.185823
0.172947
0.162315
0.154513
0.152377
0.160889
0.170067
0.172489
0.169479
0.163478
0.153804
0.14515
0.137402
0.130401
0.123974
0.117997
0.112425
0.107264
0.219013
0.201224
0.186104
0.173223
0.162443
0.154059
0.149241
0.150689
0.153048
0.153318
0.14957
0.14401
0.13693
0.130516
0.124558
0.118914
0.113599
0.108569
0.103851
0.0994786
0.21914
0.201439
0.186369
0.173492
0.162622
0.153846
0.147526
0.144838
0.143283
0.141147
0.137184
0.132474
0.126782
0.121422
0.116323
0.11145
0.106842
0.10246
0.0983352
0.0944743
0.219256
0.201636
0.186614
0.17375
0.16282
0.153796
0.146646
0.1418
0.138056
0.134376
0.130014
0.125326
0.12041
0.115343
0.110811
0.106477
0.102367
0.0984346
0.094717
0.0912054
0.219362
0.201818
0.186844
0.173998
0.163032
0.153844
0.146235
0.140298
0.135335
0.130702
0.125951
0.121132
0.116529
0.11192
0.107682
0.103618
0.0997562
0.0960546
0.0925541
0.089221
0.21946
0.201985
0.187055
0.174231
0.163242
0.153935
0.146063
0.139529
0.1339
0.128713
0.123674
0.118784
0.11421
0.10975
0.105641
0.101724
0.0980182
0.0944753
0.091127
0.0879193
0.21955
0.20214
0.187252
0.174449
0.163449
0.154067
0.14603
0.139152
0.133145
0.127626
0.122393
0.117464
0.112852
0.108475
0.104443
0.100617
0.0969999
0.0935447
0.0902812
0.08714
0.219634
0.202285
0.187435
0.174655
0.163659
0.154218
0.146072
0.138995
0.132756
0.127027
0.121658
0.116666
0.112029
0.107683
0.103675
0.0998927
0.0963237
0.0929224
0.0897154
0.0866224
0.219713
0.20242
0.187607
0.174852
0.163881
0.154383
0.146161
0.138964
0.132574
0.126717
0.121232
0.116186
0.111524
0.107189
0.103187
0.0994442
0.0959104
0.0925476
0.0893808
0.0863214
0.219786
0.202547
0.187769
0.175037
0.16407
0.154546
0.146275
0.13902
0.132527
0.126584
0.121033
0.115958