/*--------------------------------*- C++ -*----------------------------------*\
  =========                 |
  \\      /  F ield         | OpenFOAM: The Open Source CFD Toolbox
   \\    /   O peration     | Website:  https://openfoam.org
    \\  /    A nd           | Version:  10
     \\/     M anipulation  |
\*---------------------------------------------------------------------------*/
FoamFile
{
    format      ascii;
    class       volScalarField;
    location    "2000";
    object      nut;
}
// * * * * * * * * * * * * * * * * * * * * * * * * * * * * * * * * * * * * * //

dimensions      [0 2 -1 0 0 0 0];

internalField   nonuniform List<scalar> 
55398
(
0.13388
0.12107
0.0998044
0.0582673
0.0539884
0.0527085
0.134506
0.133657
0.133035
0.132072
0.128497
0.121193
0.0967708
0.0978416
0.338831
0.878236
1.19679
1.08857
1.03914
1.06442
0.134065
0.133348
0.132828
0.132531
0.132736
0.133079
0.126619
0.119847
0.184909
0.82532
0.874791
1.00507
0.91115
0.733897
0.593475
0.134018
0.133294
0.132729
0.132411
0.132651
0.134152
0.135499
0.13385
0.0992631
0.0461709
0.115278
0.128035
0.132312
0.135787
0.137611
0.138857
0.140404
0.14205
0.133991
0.133242
0.132634
0.132249
0.132314
0.133631
0.136682
0.142019
0.139159
0.125799
0.113429
0.120641
0.128932
0.137669
0.1393
0.140145
0.14064
0.140954
0.14094
0.140714
0.133975
0.133208
0.132567
0.132115
0.132013
0.132812
0.135492
0.140305
0.143479
0.143313
0.144395
0.146199
0.145946
0.145408
0.144611
0.144057
0.143687
0.142937
0.142333
0.141707
0.133965
0.133186
0.132519
0.132012
0.131778
0.132171
0.133771
0.137512
0.140554
0.142358
0.143507
0.143586
0.14323
0.142385
0.141471
0.140806
0.140329
0.139525
0.138914
0.138287
0.133957
0.133169
0.132483
0.131937
0.131607
0.131696
0.132574
0.134815
0.136991
0.138577
0.13929
0.139369
0.139069
0.138343
0.137633
0.137034
0.13659
0.135894
0.135365
0.134827
0.133947
0.133153
0.132456
0.131881
0.131482
0.13137
0.131774
0.132937
0.134219
0.135214
0.135606
0.1356
0.13526
0.134679
0.134119
0.133678
0.133307
0.132777
0.132343
0.131936
0.133948
0.133147
0.132437
0.131836
0.131387
0.131154
0.131248
0.131791
0.13245
0.132906
0.133015
0.132888
0.132594
0.132161
0.131738
0.131378
0.131061
0.130632
0.13027
0.129899
0.133945
0.133139
0.13242
0.131802
0.131314
0.131
0.130909
0.131082
0.131329
0.131443
0.131351
0.131129
0.130832
0.13045
0.130081
0.129749
0.129466
0.129102
0.128788
0.128448
0.133943
0.133133
0.132407
0.131775
0.131259
0.130889
0.130684
0.130638
0.130637
0.130547
0.130324
0.130019
0.129695
0.12936
0.129013
0.128709
0.128441
0.128122
0.127839
0.127517
0.133941
0.133128
0.132396
0.131754
0.131217
0.130805
0.130525
0.130351
0.130202
0.129979
0.129665
0.129313
0.128962
0.128626
0.1283
0.128002
0.127734
0.127435
0.127168
0.126856
0.13394
0.133125
0.132388
0.131738
0.131188
0.130744
0.130413
0.13016
0.129919
0.129617
0.129231
0.128837
0.128467
0.128125
0.127807
0.127516
0.127251
0.12697
0.126717
0.126417
0.133939
0.133122
0.132382
0.131725
0.131162
0.130699
0.130332
0.130036
0.129734
0.129381
0.128953
0.128537
0.128152
0.127806
0.127492
0.127204
0.126939
0.126667
0.126421
0.126126
0.133939
0.13312
0.132377
0.131716
0.131143
0.130667
0.130276
0.129945
0.129611
0.129225
0.128797
0.128368
0.127974
0.127625
0.127311
0.127022
0.126758
0.12649
0.126249
0.125961
0.133939
0.133119
0.132374
0.131709
0.131131
0.130644
0.130241
0.129891
0.129542
0.129145
0.128706
0.128273
0.127875
0.127522
0.127205
0.126915
0.126648
0.12638
0.126138
0.125851
0.133933
0.133106
0.132353
0.131678
0.131087
0.130586
0.130165
0.129805
0.129438
0.129036
0.128586
0.128153
0.127752
0.127395
0.127075
0.126777
0.126502
0.126227
0.125978
0.125687
0.134331
0.124602
0.115364
0.0732743
0.0426447
0.0462999
0.134509
0.133657
0.133058
0.132218
0.128893
0.121489
0.0962501
0.0703168
0.554624
0.951879
1.2512
1.24542
1.17801
1.02478
0.134063
0.133345
0.132825
0.132532
0.132754
0.133372
0.127668
0.122783
0.146114
0.794577
0.917851
1.03119
0.756478
0.768153
0.568731
0.134018
0.133294
0.132728
0.132408
0.132647
0.134178
0.136005
0.134991
0.0881945
0.0612789
0.10276
0.113392
0.123272
0.130637
0.13552
0.140787
0.143176
0.144154
0.133991
0.133241
0.132632
0.132245
0.132306
0.133596
0.136696
0.142426
0.138915
0.126621
0.117575
0.11944
0.132518
0.135788
0.138054
0.139318
0.140123
0.14066
0.140816
0.140694
0.133975
0.133208
0.132566
0.132111
0.132007
0.13277
0.135416
0.14016
0.143373
0.143171
0.144709
0.145849
0.145896
0.145268
0.14449
0.143934
0.143556
0.142816
0.142161
0.141439
0.133965
0.133186
0.132518
0.132011
0.131774
0.13214
0.133693
0.137345
0.140349
0.142176
0.143326
0.143501
0.143205
0.142347
0.141529
0.140794
0.140265
0.139494
0.138775
0.138052
0.133958
0.133169
0.132483
0.131936
0.131604
0.131683
0.132491
0.134665
0.136805
0.138388
0.139115
0.139277
0.139023
0.138283
0.137605
0.136983
0.136514
0.135854
0.13525
0.134639
0.13395
0.133154
0.132455
0.131878
0.131479
0.131366
0.131754
0.132865
0.134111
0.13509
0.135486
0.135515
0.135207
0.134643
0.13412
0.133645
0.133262
0.132751
0.132275
0.1318
0.133948
0.133147
0.132436
0.131836
0.131385
0.131151
0.131246
0.131754
0.132375
0.132833
0.132946
0.132841
0.132557
0.132129
0.131728
0.13135
0.131027
0.130612
0.130223
0.129811
0.133945
0.133139
0.13242
0.131802
0.131313
0.130999
0.13091
0.131065
0.131289
0.131404
0.131314
0.131081
0.130796
0.130425
0.130074
0.129736
0.129444
0.129092
0.128762
0.128399
0.133943
0.133133
0.132407
0.131775
0.131259
0.130887
0.13068
0.130629
0.130622
0.130527
0.130303
0.129996
0.129675
0.129353
0.129002
0.128698
0.128426
0.128113
0.127822
0.127485
0.133941
0.133128
0.132396
0.131754
0.131217
0.130805
0.130523
0.130346
0.130195
0.129968
0.129654
0.129298
0.12895
0.12862
0.128297
0.127997
0.127726
0.127431
0.127158
0.126838
0.13394
0.133125
0.132388
0.131737
0.131187
0.130744
0.130412
0.130157
0.129915
0.129612
0.129225
0.128828
0.128463
0.128123
0.127806
0.127514
0.127247
0.126967
0.126712
0.126406
0.133939
0.133122
0.132382
0.131725
0.131162
0.130699
0.130331
0.130034
0.129731
0.129378
0.12895
0.128534
0.128151
0.127805
0.127491
0.127202
0.126937
0.126665
0.126417
0.126121
0.133939
0.13312
0.132377
0.131716
0.131143
0.130667
0.130276
0.129945
0.12961
0.129224
0.128795
0.128367
0.127974
0.127624
0.127311
0.127022
0.126757
0.126489
0.126247
0.125958
0.133939
0.133119
0.132374
0.131709
0.13113
0.130644
0.130241
0.12989
0.129542
0.129144
0.128706
0.128273
0.127875
0.127521
0.127205
0.126914
0.126647
0.126378
0.126136
0.125849
0.133933
0.133106
0.132353
0.131677
0.131087
0.130586
0.130164
0.129805
0.129438
0.129036
0.128586
0.128153
0.127751
0.127394
0.127075
0.126777
0.126502
0.126226
0.125977
0.125686
0.134498
0.129638
0.119347
0.0962014
0.0450283
0.0448395
0.134509
0.133661
0.133066
0.132177
0.127898
0.121615
0.0963216
0.075648
0.646238
0.988932
1.28094
1.29675
1.34543
1.09114
0.134063
0.133345
0.132824
0.132525
0.132723
0.133449
0.127466
0.119787
0.124855
0.732304
0.902911
1.0663
0.82037
0.796734
0.635659
0.134018
0.133294
0.132728
0.132408
0.132644
0.134174
0.135657
0.134736
0.0792237
0.0842325
0.101183
0.109961
0.117103
0.124792
0.131491
0.140416
0.145822
0.146954
0.133991
0.133241
0.132632
0.132245
0.132308
0.133575
0.136585
0.142613
0.141396
0.130022
0.120482
0.121549
0.132535
0.135189
0.137077
0.138448
0.139487
0.140178
0.140502
0.140502
0.133975
0.133208
0.132566
0.132111
0.132008
0.132749
0.135408
0.140233
0.143488
0.143301
0.144506
0.145536
0.145588
0.145049
0.144442
0.143892
0.143435
0.142728
0.142071
0.141395
0.133965
0.133186
0.132518
0.132011
0.131775
0.132124
0.133728
0.137377
0.140396
0.142169
0.143212
0.143439
0.143159
0.142248
0.141499
0.140803
0.140197
0.139421
0.138654
0.138
0.133958
0.133169
0.132483
0.131936
0.131605
0.131676
0.132519
0.134682
0.136835
0.138388
0.139086
0.139271
0.139029
0.138238
0.13757
0.136963
0.136434
0.135776
0.135143
0.134588
0.133952
0.133155
0.132456
0.131878
0.131478
0.131365
0.131748
0.132869
0.134134
0.135096
0.135481
0.135496
0.135221
0.134616
0.134106
0.133637
0.133216
0.132703
0.132209
0.13176
0.133949
0.133147
0.132436
0.131835
0.131385
0.131151
0.131241
0.131756
0.132384
0.132836
0.132945
0.132818
0.132558
0.132105
0.13171
0.131336
0.13099
0.130575
0.130176
0.129783
0.133946
0.133139
0.13242
0.131802
0.131313
0.130999
0.130908
0.131067
0.131295
0.131407
0.131314
0.131068
0.130802
0.130411
0.130063
0.12973
0.129422
0.12907
0.128736
0.128383
0.133943
0.133133
0.132407
0.131775
0.131259
0.130887
0.13068
0.13063
0.130623
0.130527
0.130301
0.129991
0.129685
0.129335
0.12899
0.128691
0.12841
0.128098
0.127803
0.127473
0.133941
0.133128
0.132396
0.131754
0.131217
0.130805
0.130523
0.130347
0.130196
0.129968
0.129653
0.129295
0.128956
0.12861
0.128287
0.12799
0.127716
0.127422
0.127148
0.126832
0.13394
0.133125
0.132388
0.131738
0.131187
0.130744
0.130412
0.130158
0.129916
0.129612
0.129224
0.128828
0.128464
0.128124
0.127802
0.127511
0.127242
0.126962
0.126705
0.126402
0.133939
0.133122
0.132382
0.131725
0.131162
0.1307
0.130331
0.130034
0.129731
0.129378
0.12895
0.128534
0.128152
0.127805
0.12749
0.127202
0.126935
0.126663
0.126414
0.126118
0.133939
0.13312
0.132378
0.131716
0.131144
0.130667
0.130276
0.129945
0.12961
0.129224
0.128795
0.128366
0.127974
0.127624
0.12731
0.127022
0.126756
0.126487
0.126245
0.125956
0.133939
0.133119
0.132375
0.131709
0.131131
0.130644
0.130241
0.12989
0.129542
0.129144
0.128706
0.128273
0.127875
0.127521
0.127204
0.126914
0.126646
0.126377
0.126134
0.125848
0.133933
0.133106
0.132353
0.131678
0.131087
0.130586
0.130164
0.129805
0.129438
0.129036
0.128587
0.128153
0.127752
0.127395
0.127075
0.126777
0.126502
0.126225
0.125976
0.125685
0.134513
0.131891
0.124011
0.106621
0.0497939
0.0462052
0.134509
0.133665
0.133075
0.132262
0.127554
0.121405
0.0953374
0.0754572
0.748447
1.05503
1.27654
1.51505
1.44494
1.14936
0.134062
0.133346
0.132825
0.132521
0.132693
0.133467
0.126915
0.114739
0.131512
0.550156
0.86023
1.03895
0.879205
0.856352
0.709015
0.134018
0.133294
0.132728
0.132408
0.13264
0.134169
0.135376
0.13314
0.0746738
0.0815711
0.113326
0.111004
0.115078
0.120945
0.127381
0.13902
0.147784
0.149915
0.133991
0.133241
0.132632
0.132245
0.132308
0.133563
0.136473
0.142383
0.142637
0.133149
0.125058
0.125394
0.133412
0.135005
0.136576
0.137849
0.138916
0.139621
0.140073
0.140211
0.133975
0.133208
0.132566
0.132111
0.13201
0.132736
0.135378
0.140194
0.143662
0.143721
0.144755
0.14554
0.145423
0.144994
0.144438
0.143891
0.143382
0.142741
0.142075
0.141385
0.133965
0.133186
0.132518
0.132012
0.131776
0.132114
0.133738
0.137388
0.140443
0.142248
0.143215
0.143403
0.142928
0.142099
0.141449
0.140786
0.140152
0.139442
0.138706
0.138008
0.133958
0.133169
0.132484
0.131936
0.131605
0.13167
0.132531
0.134696
0.136856
0.138411
0.139089
0.139281
0.138911
0.138166
0.137551
0.136946
0.136384
0.135774
0.135162
0.134577
0.133952
0.133156
0.132456
0.131878
0.131478
0.131363
0.131745
0.132871
0.134146
0.135109
0.135489
0.135494
0.135181
0.134577
0.134098
0.133631
0.13319
0.132706
0.132224
0.13175
0.133949
0.133147
0.132436
0.131835
0.131385
0.131151
0.131239
0.131756
0.132389
0.132842
0.132948
0.132816
0.132556
0.132095
0.13171
0.131331
0.130968
0.130571
0.13018
0.129773
0.133946
0.133139
0.13242
0.131802
0.131313
0.130999
0.130906
0.131068
0.131298
0.131411
0.131315
0.131066
0.130794
0.130401
0.130061
0.129728
0.12941
0.129069
0.128738
0.128376
0.133943
0.133133
0.132407
0.131775
0.131259
0.130887
0.13068
0.130631
0.130624
0.130528
0.130301
0.12999
0.129679
0.129323
0.128999
0.128692
0.128404
0.128096
0.127802
0.127468
0.133941
0.133128
0.132396
0.131754
0.131217
0.130804
0.130523
0.130348
0.130197
0.129969
0.129653
0.129294
0.128952
0.128603
0.12829
0.127992
0.127713
0.127421
0.127147
0.126828
0.13394
0.133125
0.132388
0.131738
0.131187
0.130744
0.130412
0.130158
0.129916
0.129613
0.129224
0.128828
0.128461
0.128118
0.127798
0.127509
0.12724
0.126961
0.126704
0.1264
0.133939
0.133122
0.132382
0.131725
0.131163
0.1307
0.130331
0.130035
0.129731
0.129378
0.12895
0.128533
0.12815
0.127802
0.127487
0.127201
0.126934
0.126662
0.126414
0.126117
0.133939
0.13312
0.132378
0.131716
0.131144
0.130667
0.130276
0.129945
0.12961
0.129224
0.128795
0.128366
0.127973
0.127623
0.127308
0.127021
0.126755
0.126487
0.126244
0.125955
0.133939
0.133119
0.132375
0.131709
0.131131
0.130644
0.130241
0.12989
0.129542
0.129144
0.128706
0.128273
0.127875
0.12752
0.127203
0.126914
0.126646
0.126377
0.126134
0.125847
0.133933
0.133106
0.132353
0.131678
0.131087
0.130586
0.130164
0.129805
0.129438
0.129036
0.128587
0.128153
0.127752
0.127395
0.127075
0.126777
0.126502
0.126226
0.125975
0.125684
0.134514
0.132416
0.127142
0.113002
0.053487
0.0479885
0.134509
0.133667
0.133082
0.132372
0.127995
0.12178
0.095769
0.081503
0.817881
1.14778
1.3068
1.67213
1.53827
1.25686
0.134062
0.133346
0.132825
0.132523
0.132681
0.133493
0.126589
0.11067
0.180271
0.406174
0.786867
0.989595
0.88683
0.890962
0.773888
0.134018
0.133294
0.132728
0.132408
0.132636
0.134168
0.135187
0.131412
0.0715066
0.0826374
0.139082
0.117364
0.117611
0.12038
0.124833
0.13741
0.148634
0.152412
0.133991
0.133241
0.132632
0.132245
0.132309
0.133558
0.136384
0.141789
0.141786
0.133821
0.127432
0.128723
0.134981
0.135796
0.136851
0.13778
0.138643
0.139249
0.139704
0.139908
0.133975
0.133208
0.132566
0.132111
0.132011
0.13273
0.135345
0.140015
0.143574
0.143941
0.145055
0.145727
0.145425
0.144977
0.14445
0.143916
0.143381
0.142753
0.142088
0.141391
0.133965
0.133186
0.132519
0.132012
0.131777
0.13211
0.133734
0.137355
0.140428
0.142295
0.143255
0.143398
0.142849
0.142185
0.141481
0.1408
0.140138
0.139445
0.138733
0.138026
0.133958
0.133169
0.132484
0.131936
0.131606
0.131668
0.132532
0.134698
0.136861
0.138427
0.139109
0.139293
0.138863
0.138265
0.137601
0.136967
0.136371
0.135767
0.135166
0.134574
0.133952
0.133156
0.132457
0.131879
0.131479
0.131362
0.131743
0.13287
0.13415
0.135117
0.1355
0.135502
0.135168
0.134601
0.134111
0.133637
0.133181
0.132703
0.132229
0.131748
0.133949
0.133147
0.132437
0.131836
0.131385
0.131151
0.131238
0.131754
0.13239
0.132845
0.132952
0.132817
0.132557
0.132124
0.131729
0.13134
0.130963
0.130566
0.130178
0.129767
0.133946
0.133139
0.13242
0.131802
0.131313
0.130999
0.130906
0.131067
0.131299
0.131413
0.131318
0.131067
0.130791
0.130413
0.130067
0.129731
0.129407
0.129066
0.128737
0.128373
0.133943
0.133133
0.132407
0.131775
0.131259
0.130887
0.13068
0.130631
0.130625
0.130529
0.130301
0.129989
0.129677
0.129327
0.129006
0.128698
0.128403
0.128094
0.127801
0.127464
0.133941
0.133128
0.132396
0.131754
0.131217
0.130804
0.130523
0.130348
0.130197
0.12997
0.129654
0.129294
0.12895
0.128605
0.128293
0.127994
0.127712
0.12742
0.127146
0.126826
0.13394
0.133125
0.132388
0.131738
0.131187
0.130744
0.130412
0.130158
0.129916
0.129613
0.129225
0.128828
0.12846
0.128115
0.127803
0.127512
0.127239
0.126961
0.126704
0.126398
0.133939
0.133122
0.132382
0.131725
0.131163
0.1307
0.130332
0.130035
0.129731
0.129378
0.12895
0.128533
0.128149
0.127801
0.127489
0.127202
0.126934
0.126662
0.126413
0.126116
0.133939
0.13312
0.132378
0.131716
0.131144
0.130667
0.130276
0.129945
0.12961
0.129224
0.128795
0.128366
0.127973
0.127622
0.127309
0.127022
0.126755
0.126487
0.126244
0.125955
0.133939
0.133119
0.132375
0.131709
0.131131
0.130644
0.130241
0.12989
0.129542
0.129144
0.128706
0.128273
0.127875
0.12752
0.127203
0.126914
0.126646
0.126377
0.126133
0.125846
0.133933
0.133106
0.132353
0.131678
0.131087
0.130586
0.130164
0.129805
0.129438
0.129036
0.128587
0.128153
0.127752
0.127396
0.127075
0.126778
0.126502
0.126226
0.125975
0.125684
0.134514
0.132504
0.128351
0.116739
0.0560172
0.0489935
0.134509
0.133668
0.133086
0.132456
0.12863
0.122732
0.097109
0.0852027
0.671104
1.18141
1.39633
1.66068
1.61553
1.3813
0.134062
0.133345
0.132826
0.132526
0.132689
0.133564
0.126772
0.109722
0.246814
0.348481
0.579801
0.943351
0.828687
0.875421
0.811566
0.134018
0.133294
0.132728
0.132408
0.132636
0.134176
0.135158
0.130337
0.0714276
0.0822979
0.14989
0.123509
0.122014
0.122317
0.124418
0.135656
0.147909
0.153674
0.133991
0.133241
0.132632
0.132245
0.132309
0.133557
0.13634
0.141192
0.140273
0.132657
0.127496
0.13029
0.136341
0.136859
0.137577
0.138178
0.138741
0.139141
0.139496
0.139676
0.133975
0.133208
0.132566
0.132111
0.132011
0.132728
0.135321
0.13979
0.143251
0.143789
0.1451
0.14584
0.145471
0.144999
0.144484
0.143963
0.143415
0.142769
0.142104
0.141405
0.133965
0.133186
0.132519
0.132012
0.131778
0.132108
0.133727
0.137293
0.140338
0.142247
0.143246
0.143389
0.142818
0.142211
0.141521
0.140834
0.14015
0.139451
0.138746
0.138041
0.133958
0.133169
0.132484
0.131936
0.131607
0.131667
0.132531
0.134688
0.136844
0.138416
0.139119
0.139301
0.138846
0.138305
0.137655
0.137011
0.136389
0.135772
0.13517
0.134573
0.133953
0.133157
0.132457
0.131879
0.131479
0.131363
0.131742
0.132867
0.134147
0.135116
0.135508
0.135512
0.135169
0.134616
0.134129
0.133652
0.133185
0.132703
0.13223
0.131747
0.133949
0.133147
0.132437
0.131836
0.131385
0.131151
0.131237
0.131753
0.132389
0.132844
0.132956
0.132819
0.132559
0.13214
0.131749
0.131356
0.130969
0.130566
0.130177
0.129762
0.133946
0.133139
0.13242
0.131802
0.131313
0.130999
0.130905
0.131066
0.131298
0.131413
0.13132
0.131068
0.130791
0.130418
0.130075
0.129737
0.129408
0.129065
0.128736
0.12837
0.133943
0.133133
0.132407
0.131775
0.131259
0.130887
0.13068
0.130631
0.130624
0.130529
0.130302
0.12999
0.129676
0.129329
0.129012
0.128704
0.128406
0.128095
0.1278
0.127462
0.133941
0.133128
0.132396
0.131754
0.131217
0.130804
0.130523
0.130348
0.130197
0.129971
0.129654
0.129294
0.128949
0.128605
0.128296
0.127998
0.127713
0.12742
0.127146
0.126825
0.13394
0.133125
0.132388
0.131738
0.131187
0.130744
0.130412
0.130158
0.129916
0.129614
0.129225
0.128829
0.128459
0.128114
0.127804
0.127514
0.127241
0.126961
0.126703
0.126397
0.133939
0.133122
0.132382
0.131725
0.131163
0.1307
0.130332
0.130035
0.129732
0.129379
0.12895
0.128533
0.128149
0.1278
0.12749
0.127203
0.126935
0.126662
0.126413
0.126116
0.133939
0.13312
0.132378
0.131716
0.131144
0.130667
0.130276
0.129945
0.12961
0.129224
0.128795
0.128366
0.127973
0.127622
0.127309
0.127022
0.126756
0.126487
0.126244
0.125954
0.133939
0.133119
0.132375
0.131709
0.131131
0.130644
0.130241
0.12989
0.129542
0.129144
0.128706
0.128273
0.127875
0.127519
0.127204
0.126915
0.126647
0.126377
0.126133
0.125846
0.133933
0.133106
0.132353
0.131678
0.131087
0.130586
0.130164
0.129805
0.129438
0.129036
0.128587
0.128153
0.127752
0.127396
0.127076
0.126778
0.126503
0.126226
0.125975
0.125683
0.134514
0.132516
0.128684
0.118464
0.0576033
0.0494996
0.134509
0.133668
0.133089
0.132509
0.129153
0.123839
0.0987564
0.0892721
0.609026
0.970377
1.16674
1.47428
1.65538
1.48
0.134062
0.133345
0.132825
0.13253
0.132707
0.133676
0.127336
0.111255
0.328255
0.367478
0.449084
0.706748
0.707501
0.802059
0.804077
0.134018
0.133294
0.132728
0.132408
0.132638
0.134197
0.13529
0.130322
0.0734534
0.0832716
0.147816
0.126099
0.125317
0.124928
0.125462
0.133893
0.145426
0.153
0.133991
0.133241
0.132632
0.132245
0.13231
0.13356
0.13635
0.140906
0.139371
0.131386
0.126482
0.130253
0.136983
0.137631
0.13832
0.138782
0.139113
0.139282
0.139475
0.139566
0.133975
0.133208
0.132566
0.132111
0.132012
0.132727
0.135311
0.139631
0.142917
0.143443
0.144903
0.145783
0.145446
0.144991
0.144514
0.144014
0.143465
0.142807
0.142133
0.141429
0.133965
0.133186
0.132519
0.132011
0.131778
0.132107
0.133722
0.137233
0.140218
0.142128
0.143168
0.14334
0.142776
0.142207
0.141554
0.140876
0.140183
0.139469
0.138759
0.138054
0.133958
0.133169
0.132484
0.131936
0.131607
0.131666
0.13253
0.134672
0.136814
0.138382
0.139105
0.139296
0.138831
0.138317
0.137695
0.137059
0.136426
0.135794
0.135181
0.134577
0.133953
0.133157
0.132457
0.131879
0.13148
0.131363
0.131741
0.132863
0.134141
0.135108
0.135508
0.135517
0.135173
0.134628
0.134149
0.133672
0.133199
0.13271
0.132233
0.131747
0.133949
0.133147
0.132437
0.131836
0.131385
0.131152
0.131237
0.131751
0.132387
0.132841
0.132958
0.132819
0.13256
0.132149
0.131767
0.131376
0.130984
0.130574
0.130179
0.12976
0.133946
0.133139
0.13242
0.131802
0.131314
0.130999
0.130905
0.131065
0.131297
0.131412
0.131321
0.131069
0.130792
0.130422
0.130082
0.129745
0.129414
0.129068
0.128736
0.128368
0.133943
0.133133
0.132407
0.131775
0.131259
0.130887
0.13068
0.130631
0.130624
0.130528
0.130303
0.12999
0.129676
0.12933
0.129017
0.12871
0.128411
0.128098
0.127801
0.127461
0.133941
0.133128
0.132396
0.131754
0.131217
0.130804
0.130523
0.130348
0.130197
0.12997
0.129655
0.129294
0.128949
0.128606
0.128298
0.128001
0.127716
0.127422
0.127146
0.126824
0.13394
0.133125
0.132388
0.131738
0.131187
0.130744
0.130412
0.130158
0.129916
0.129613
0.129225
0.128829
0.128459
0.128113
0.127806
0.127516
0.127243
0.126962
0.126704
0.126396
0.133939
0.133122
0.132382
0.131725
0.131163
0.1307
0.130332
0.130035
0.129732
0.129379
0.12895
0.128534
0.128149
0.1278
0.127491
0.127204
0.126936
0.126663
0.126414
0.126115
0.133939
0.13312
0.132378
0.131716
0.131144
0.130667
0.130276
0.129945
0.12961
0.129224
0.128795
0.128366
0.127973
0.127621
0.12731
0.127023
0.126757
0.126488
0.126244
0.125954
0.133939
0.133119
0.132375
0.131709
0.131131
0.130644
0.130241
0.12989
0.129542
0.129145
0.128706
0.128273
0.127875
0.127519
0.127204
0.126916
0.126647
0.126377
0.126133
0.125845
0.133933
0.133106
0.132353
0.131678
0.131087
0.130586
0.130164
0.129804
0.129438
0.129036
0.128587
0.128153
0.127752
0.127396
0.127076
0.126779
0.126503
0.126226
0.125975
0.125683
0.134514
0.132518
0.128756
0.119073
0.0584386
0.0498133
0.134509
0.133669
0.13309
0.132538
0.129497
0.124778
0.100257
0.0918008
0.597028
0.794511
0.976075
1.22442
1.63915
1.51902
0.134062
0.133345
0.132825
0.132532
0.132727
0.133802
0.128033
0.113291
0.363443
0.433874
0.411515
0.52666
0.570701
0.687153
0.748625
0.134018
0.133294
0.132728
0.132408
0.13264
0.134224
0.135524
0.130993
0.0755946
0.0850944
0.146387
0.126638
0.127071
0.127071
0.127053
0.132639
0.142025
0.150413
0.133991
0.133241
0.132632
0.132245
0.13231
0.133565
0.136405
0.140978
0.139418
0.131056
0.125791
0.129631
0.137018
0.137927
0.138792
0.139322
0.13958
0.139565
0.139599
0.139575
0.133975
0.133208
0.132566
0.132111
0.132012
0.132728
0.135317
0.13959
0.142751
0.143166
0.144646
0.145616
0.145336
0.144911
0.144496
0.144041
0.143509
0.142856
0.142172
0.141462
0.133965
0.133186
0.132519
0.132011
0.131779
0.132107
0.13372
0.1372
0.140128
0.142004
0.143058
0.143252
0.142707
0.142168
0.141562
0.140911
0.140223
0.139499
0.138778
0.138068
0.133958
0.133169
0.132484
0.131936
0.131607
0.131666
0.132528
0.134658
0.136784
0.138339
0.139071
0.139277
0.138811
0.138309
0.137714
0.137097
0.136467
0.135826
0.135202
0.134588
0.133953
0.133157
0.132457
0.131879
0.13148
0.131363
0.13174
0.132859
0.134133
0.135096
0.1355
0.135516
0.135173
0.134634
0.134164
0.133694
0.13322
0.132725
0.132241
0.13175
0.133949
0.133147
0.132437
0.131836
0.131385
0.131152
0.131237
0.13175
0.132385
0.132836
0.132955
0.132819
0.13256
0.132153
0.131779
0.131394
0.131002
0.130587
0.130186
0.129762
0.133946
0.133139
0.13242
0.131802
0.131314
0.130999
0.130905
0.131065
0.131297
0.13141
0.131321
0.13107
0.130792
0.130424
0.130088
0.129753
0.129422
0.129073
0.128739
0.128368
0.133943
0.133133
0.132407
0.131775
0.131259
0.130887
0.13068
0.130631
0.130624
0.130527
0.130302
0.129991
0.129676
0.129331
0.12902
0.128716
0.128418
0.128103
0.127804
0.127462
0.133941
0.133128
0.132396
0.131754
0.131217
0.130804
0.130523
0.130348
0.130197
0.12997
0.129655
0.129295
0.12895
0.128606
0.1283
0.128004
0.12772
0.127424
0.127148
0.126824
0.13394
0.133125
0.132388
0.131738
0.131187
0.130744
0.130412
0.130158
0.129916
0.129613
0.129225
0.128829
0.128459
0.128113
0.127806
0.127518
0.127245
0.126964
0.126705
0.126397
0.133939
0.133122
0.132382
0.131725
0.131163
0.1307
0.130332
0.130035
0.129732
0.129379
0.12895
0.128534
0.128149
0.1278
0.127491
0.127205
0.126937
0.126664
0.126414
0.126116
0.133939
0.13312
0.132378
0.131716
0.131144
0.130667
0.130276
0.129945
0.12961
0.129224
0.128796
0.128367
0.127973
0.127621
0.12731
0.127024
0.126758
0.126488
0.126244
0.125954
0.133939
0.133119
0.132375
0.131709
0.131131
0.130644
0.130241
0.12989
0.129542
0.129145
0.128706
0.128273
0.127875
0.127519
0.127205
0.126917
0.126648
0.126378
0.126134
0.125845
0.133933
0.133106
0.132353
0.131678
0.131087
0.130586
0.130164
0.129804
0.129437
0.129036
0.128587
0.128153
0.127752
0.127397
0.127077
0.126779
0.126504
0.126227
0.125976
0.125684
0.134514
0.132518
0.128769
0.119246
0.0587825
0.0499515
0.134509
0.133669
0.133091
0.132552
0.129692
0.125437
0.1014
0.0931232
0.631611
0.735294
0.9143
1.05751
1.57406
1.40019
0.134062
0.133345
0.132825
0.132533
0.132742
0.133918
0.128683
0.114911
0.349269
0.523107
0.43968
0.443835
0.461338
0.565612
0.661031
0.134018
0.133294
0.132727
0.132409
0.132643
0.134253
0.13579
0.131835
0.0769462
0.086909
0.147418
0.126919
0.12798
0.128544
0.128591
0.132064
0.138914
0.146794
0.133991
0.133241
0.132632
0.132245
0.13231
0.133571
0.136485
0.141271
0.140056
0.131625
0.125958
0.129322
0.136856
0.13789
0.138939
0.139644
0.139974
0.139909
0.139815
0.139676
0.133975
0.133208
0.132566
0.132111
0.132012
0.132729
0.135333
0.139653
0.142788
0.1431
0.144494
0.145461
0.145202
0.144781
0.144421
0.144023
0.143524
0.142891
0.142207
0.141487
0.133965
0.133186
0.132519
0.132011
0.131779
0.132107
0.133721
0.1372
0.140099
0.141934
0.142967
0.143163
0.142625
0.142098
0.141535
0.140923
0.140256
0.139533
0.138803
0.138084
0.133958
0.133169
0.132484
0.131936
0.131607
0.131666
0.132528
0.134652
0.136765
0.138307
0.139034
0.139249
0.138785
0.138287
0.137711
0.137116
0.136501
0.135861
0.13523
0.134606
0.133953
0.133157
0.132457
0.131879
0.13148
0.131363
0.13174
0.132856
0.134127
0.135085
0.135489
0.135508
0.135168
0.134634
0.134173
0.133711
0.133241
0.132744
0.132254
0.131757
0.133949
0.133147
0.132437
0.131836
0.131385
0.131152
0.131237
0.131749
0.132384
0.132833
0.132951
0.132817
0.132558
0.132154
0.131786
0.131408
0.13102
0.130604
0.130198
0.129769
0.133946
0.133139
0.13242
0.131802
0.131314
0.130999
0.130905
0.131064
0.131297
0.131408
0.131319
0.131069
0.130792
0.130425
0.130091
0.12976
0.129431
0.129081
0.128744
0.128371
0.133943
0.133133
0.132407
0.131775
0.131259
0.130887
0.13068
0.13063
0.130624
0.130527
0.130302
0.129991
0.129676
0.129332
0.129023
0.128721
0.128425
0.128109
0.127809
0.127464
0.133941
0.133128
0.132396
0.131754
0.131217
0.130804
0.130523
0.130347
0.130197
0.12997
0.129655
0.129295
0.12895
0.128606
0.128301
0.128006
0.127723
0.127427
0.12715
0.126826
0.13394
0.133125
0.132388
0.131738
0.131187
0.130744
0.130412
0.130158
0.129916
0.129613
0.129225
0.128829
0.12846
0.128113
0.127807
0.127519
0.127247
0.126966
0.126707
0.126398
0.133939
0.133122
0.132382
0.131725
0.131163
0.1307
0.130332
0.130035
0.129732
0.129379
0.12895
0.128534
0.12815
0.1278
0.127492
0.127206
0.126938
0.126665
0.126415
0.126116
0.133939
0.13312
0.132378
0.131716
0.131144
0.130667
0.130276
0.129945
0.12961
0.129224
0.128796
0.128367
0.127973
0.127621
0.127311
0.127025
0.126759
0.126489
0.126245
0.125954
0.133939
0.133119
0.132375
0.131709
0.131131
0.130644
0.130241
0.12989
0.129542
0.129145
0.128706
0.128273
0.127875
0.127519
0.127205
0.126917
0.126649
0.126379
0.126135
0.125846
0.133933
0.133106
0.132353
0.131678
0.131087
0.130586
0.130164
0.129804
0.129437
0.129035
0.128587
0.128153
0.127752
0.127397
0.127077
0.12678
0.126505
0.126228
0.125977
0.125684
0.134514
0.132518
0.128771
0.119288
0.0588955
0.049997
0.134509
0.133669
0.133091
0.132558
0.129789
0.125839
0.102165
0.0937819
0.716428
0.730821
0.875535
0.986818
1.20158
1.2337
0.134062
0.133345
0.132825
0.132534
0.132753
0.134009
0.129199
0.115992
0.348507
0.609919
0.502826
0.437477
0.39348
0.468562
0.565822
0.134018
0.133294
0.132727
0.132409
0.132645
0.134278
0.136035
0.132567
0.0775611
0.0882274
0.149059
0.127498
0.128633
0.129574
0.129858
0.132062
0.136675
0.143181
0.133991
0.133241
0.132632
0.132245
0.132311
0.133577
0.136571
0.141633
0.140839
0.132598
0.126766
0.129623
0.136841
0.137802
0.138903
0.139751
0.140213
0.140196
0.140046
0.139822
0.133975
0.133208
0.132566
0.132111
0.132012
0.13273
0.135356
0.139774
0.142966
0.14324
0.144514
0.145408
0.145116
0.144659
0.144315
0.143963
0.143503
0.142896
0.142224
0.141501
0.133965
0.133186
0.132519
0.132011
0.131779
0.132107
0.133725
0.137225
0.140129
0.141937
0.142927
0.143104
0.142558
0.142022
0.14148
0.140904
0.140268
0.139558
0.138829
0.138103
0.133958
0.133169
0.132484
0.131936
0.131607
0.131666
0.132528
0.134653
0.136761
0.138292
0.139006
0.139221
0.138759
0.13826
0.137694
0.137118
0.136521
0.135888
0.135257
0.134628
0.133953
0.133157
0.132457
0.131879
0.13148
0.131363
0.13174
0.132855
0.134122
0.135077
0.135478
0.135498
0.13516
0.134628
0.134174
0.133722
0.13326
0.132764
0.132272
0.131769
0.133949
0.133147
0.132437
0.131836
0.131385
0.131152
0.131237
0.131749
0.132383
0.13283
0.132947
0.132814
0.132556
0.132152
0.131788
0.131417
0.131034
0.13062
0.130212
0.129779
0.133946
0.133139
0.13242
0.131802
0.131314
0.130999
0.130905
0.131064
0.131297
0.131407
0.131317
0.131068
0.130791
0.130425
0.130093
0.129765
0.129439
0.129089
0.128751
0.128376
0.133943
0.133133
0.132407
0.131775
0.131259
0.130887
0.13068
0.13063
0.130624
0.130526
0.130301
0.12999
0.129676
0.129332
0.129024
0.128725
0.12843
0.128116
0.127815
0.127468
0.133941
0.133128
0.132396
0.131754
0.131217
0.130804
0.130523
0.130347
0.130197
0.12997
0.129655
0.129295
0.12895
0.128607
0.128302
0.128008
0.127726
0.127431
0.127153
0.126828
0.13394
0.133125
0.132388
0.131738
0.131187
0.130744
0.130412
0.130157
0.129916
0.129613
0.129225
0.128829
0.12846
0.128113
0.127808
0.12752
0.127249
0.126968
0.126709
0.126399
0.133939
0.133122
0.132382
0.131725
0.131163
0.1307
0.130332
0.130035
0.129732
0.129379
0.12895
0.128534
0.12815
0.127801
0.127492
0.127207
0.12694
0.126667
0.126416
0.126117
0.133939
0.13312
0.132378
0.131716
0.131144
0.130667
0.130276
0.129945
0.12961
0.129224
0.128796
0.128367
0.127973
0.127622
0.127311
0.127025
0.12676
0.126491
0.126246
0.125955
0.133939
0.133119