/*--------------------------------*- C++ -*----------------------------------*\
  =========                 |
  \\      /  F ield         | OpenFOAM: The Open Source CFD Toolbox
   \\    /   O peration     | Website:  https://openfoam.org
    \\  /    A nd           | Version:  10
     \\/     M anipulation  |
\*---------------------------------------------------------------------------*/
FoamFile
{
    format      ascii;
    class       volScalarField;
    location    "2000";
    object      omega;
}
// * * * * * * * * * * * * * * * * * * * * * * * * * * * * * * * * * * * * * //

dimensions      [0 0 -1 0 0 0 0];

internalField   nonuniform List<scalar> 
55398
(
1.74882
1.74981
1.98387
3.64548
4.77211
9.73369
1.69743
1.55109
1.4293
1.33103
1.27446
1.29319
2.11875
5.97859
6.82568
5.86402
5.52027
5.6488
5.15234
4.31881
1.62998
1.50261
1.3932
1.29934
1.22085
1.18248
1.4316
2.43648
6.20842
7.31202
6.24211
4.88028
3.87949
2.96598
2.29651
1.63087
1.50425
1.39569
1.30213
1.2229
1.16697
1.23457
1.52978
2.71905
12.0955
7.77646
4.28836
2.33087
2.01773
1.78292
1.55291
1.38885
1.25943
1.63228
1.50662
1.39877
1.30568
1.22627
1.16381
1.15476
1.30273
1.63255
1.9824
2.35916
2.01869
1.65542
1.28223
1.16422
1.08119
1.01638
0.946783
0.893889
0.847344
1.63358
1.50884
1.40167
1.30904
1.22955
1.16375
1.12645
1.16328
1.20719
1.23394
1.23477
1.14502
1.08102
1.0199
0.958629
0.909653
0.868249
0.826222
0.790618
0.758637
1.63474
1.51084
1.4043
1.31171
1.2328
1.16494
1.11569
1.10139
1.09797
1.08869
1.05489
1.01172
0.967758
0.922047
0.880394
0.84352
0.810544
0.777788
0.748451
0.720939
1.63577
1.51263
1.40666
1.31494
1.23536
1.16744
1.11311
1.07658
1.04945
1.02314
0.989223
0.95273
0.916065
0.878547
0.844302
0.812303
0.782827
0.754051
0.727508
0.702531
1.63591
1.51376
1.4087
1.31783
1.23855
1.17059
1.11287
1.0674
1.02988
0.995631
0.960484
0.925772
0.89105
0.857169
0.825441
0.796011
0.768241
0.741504
0.71628
0.69277
1.63765
1.51574
1.41075
1.31977
1.24088
1.17284
1.1142
1.06482
1.02239
0.984214
0.947692
0.912773
0.879295
0.847
0.816731
0.788165
0.761206
0.73539
0.711004
0.687838
1.63842
1.5171
1.41254
1.32185
1.24313
1.17497
1.11557
1.06437
1.01965
0.979496
0.941993
0.906536
0.87337
0.841689
0.811937
0.783692
0.757269
0.73193
0.707945
0.685084
1.63912
1.51834
1.41416
1.32378
1.24522
1.17691
1.11722
1.06509
1.0192
0.977732
0.939307
0.903653
0.870397
0.83926
0.809368
0.781492
0.755166
0.730145
0.706428
0.683752
1.63977
1.51947
1.41566
1.32556
1.2472
1.17884
1.11892
1.06621
1.01963
0.977279
0.938308
0.902313
0.868853
0.837545
0.808092
0.780333
0.754084
0.729209
0.705631
0.683063
1.64037
1.52053
1.41704
1.32721
1.24935
1.18058
1.12054
1.06751
1.02034
0.977588
0.938128
0.901723
0.868266
0.836888
0.807435
0.779824
0.75366
0.728911
0.705453
0.68297
1.64093
1.52151
1.41834
1.32874
1.25072
1.18233
1.12218
1.06899
1.02145
0.978336
0.93858
0.902148
0.868359
0.836948
0.80752
0.779947
0.753826
0.729143
0.705749
0.683315
1.64145
1.52244
1.41954
1.33016
1.25208
1.18393
1.12377
1.07047
1.02272
0.979361
0.93953
0.902925
0.869036
0.83758
0.808206
0.780554
0.754445
0.729784
0.706436
0.68404
1.64195
1.52331
1.42068
1.33148
1.25364
1.18539
1.12529
1.07198
1.02416
0.980697
0.940785
0.904096
0.870132
0.838621
0.80918
0.781547
0.755416
0.730754
0.707393
0.684991
1.64236
1.52402
1.42159
1.33253
1.25474
1.18654
1.12646
1.07321
1.02534
0.981862
0.941909
0.905207
0.871204
0.839659
0.810237
0.782544
0.756364
0.731653
0.708254
0.68582
1.74297
1.69295
1.6692
2.51374
5.34982
7.25249
1.69735
1.5511
1.42917
1.3288
1.26989
1.28708
1.98379
4.69218
4.90272
5.27926
5.24594
5.48396
5.12384
4.22296
1.62984
1.50233
1.39335
1.29927
1.22067
1.17914
1.40785
2.30845
10.227
7.40454
6.34359
5.04365
3.16419
2.97849
2.10476
1.63093
1.50425
1.39571
1.30219
1.2231
1.16642
1.22306
1.49189
3.11298
6.50969
9.04708
2.86341
2.31736
2.00189
1.7772
1.54817
1.37929
1.23707
1.63235
1.50663
1.3988
1.30576
1.22635
1.16381
1.15082
1.28378
1.60562
1.93108
2.13783
2.01587
1.47624
1.30677
1.17419
1.0852
1.01744
0.947134
0.891289
0.842074
1.63364
1.50885
1.4017
1.30911
1.22962
1.16388
1.12537
1.15495
1.19968
1.22755
1.2008
1.14651
1.08479
1.01847
0.95768
0.909057
0.867624
0.825588
0.789143
0.755888
1.6348
1.51084
1.40432
1.31199
1.23273
1.16538
1.11545
1.09894
1.09418
1.08492
1.05215
1.01096
0.967954
0.921747
0.881156
0.843641
0.810253
0.777803
0.747644
0.71973
1.63583
1.51264
1.40668
1.31496
1.23558
1.16729
1.11311
1.07585
1.04796
1.02137
0.987574
0.951955
0.915767
0.878355
0.844174
0.812045
0.782459
0.753826
0.727051
0.701823
1.63639
1.51386
1.40859
1.31756
1.23853
1.17071
1.1129
1.06732
1.0294
0.99494
0.959759
0.925308
0.890758
0.856996
0.825528
0.795841
0.768034
0.741345
0.716118
0.692324
1.63765
1.51575
1.41076
1.31979
1.24092
1.173
1.11412
1.06492
1.0224
0.98404
0.947435
0.912591
0.879109
0.846867
0.816709
0.788059
0.761064
0.735261
0.710853
0.6876
1.63842
1.51711
1.41255
1.32189
1.24317
1.17525
1.11558
1.06448
1.01984
0.979486
0.941857
0.906306
0.873273
0.84161
0.811919
0.783692
0.757135
0.731827
0.707856
0.684955
1.63912
1.51834
1.41418
1.32381
1.24526
1.17696
1.11743
1.06534
1.01933
0.977779
0.939316
0.903606
0.870241
0.839359
0.809264
0.78142
0.755089
0.730066
0.706362
0.683663
1.63976
1.51947
1.41567
1.32558
1.24723
1.17887
1.1191
1.06645
1.01971
0.977364
0.938337
0.902291
0.868759
0.837483
0.808113
0.780293
0.754049
0.729162
0.705599
0.68302
1.64036
1.52053
1.41705
1.32723
1.24935
1.18069
1.12072
1.06772
1.02046
0.977646
0.93815
0.901655
0.868204
0.836867
0.807439
0.779817
0.753648
0.728876
0.705432
0.682949
1.64092
1.52151
1.41834
1.32875
1.25074
1.18243
1.12235
1.06917
1.02156
0.978391
0.938607
0.902151
0.868328
0.836937
0.807524
0.779947
0.753817
0.729108
0.705729
0.683303
1.64145
1.52244
1.41955
1.33016
1.25216
1.18396
1.12387
1.07059
1.02281
0.979406
0.939557
0.902932
0.869008
0.837572
0.808186
0.780576
0.754447
0.72976
0.706418
0.684031
1.64194
1.52331
1.42068
1.33148
1.25364
1.18543
1.12535
1.07205
1.02421
0.980725
0.940802
0.9041
0.870103
0.838612
0.809185
0.781551
0.75541
0.730721
0.707374
0.684985
1.64235
1.52402
1.4216
1.33253
1.25473
1.18655
1.12647
1.07323
1.02537
0.981877
0.94192
0.90521
0.871175
0.839649
0.810252
0.782522
0.756345
0.731617
0.708234
0.685818
1.74121
1.62775
1.60608
1.82398
4.02538
5.7341
1.69734
1.55108
1.42925
1.32884
1.27729
1.2784
1.84887
4.08527
4.41986
4.65103
4.73602
5.08359
4.85172
4.14355
1.6298
1.50231
1.39333
1.29924
1.22081
1.17748
1.38513
2.22705
17.1737
7.69431
6.61142
5.3935
3.2576
2.98003
2.16551
1.63097
1.50425
1.39574
1.30216
1.22312
1.16613
1.22201
1.47691
2.36948
4.62112
9.05502
2.79007
2.32794
2.00371
1.76925
1.55263
1.38828
1.25046
1.63239
1.50663
1.39882
1.30575
1.2263
1.16387
1.15205
1.27767
1.55098
1.85509
2.05698
1.94532
1.4574
1.30187
1.18386
1.09242
1.01942
0.949673
0.892684
0.844015
1.63368
1.50885
1.40172
1.3091
1.22957
1.16405
1.12602
1.15394
1.19923
1.22528
1.19708
1.14592
1.08114
1.01509
0.958644
0.90976
0.867026
0.825536
0.788936
0.755997
1.63483
1.51084
1.40434
1.31209
1.23266
1.16577
1.11572
1.09888
1.09492
1.08553
1.05192
1.01117
0.968746
0.921011
0.880862
0.843785
0.809906
0.777497
0.74702
0.719574
1.63587
1.51264
1.4067
1.31495
1.23561
1.1679
1.11292
1.07576
1.04825
1.02169
0.987693
0.95204
0.915889
0.878165
0.844021
0.811962
0.782119
0.75348
0.726624
0.701656
1.63662
1.514
1.40862
1.31742
1.2384
1.17071
1.11302
1.06731
1.02942
0.995004
0.95976
0.925084
0.89089
0.85688
0.825513
0.795817
0.767885
0.741156
0.715921
0.692206
1.63766
1.51575
1.41078
1.31979
1.24088
1.173
1.11421
1.06488
1.02235
0.984054
0.947423
0.9124
0.879172
0.846778
0.816661
0.788021
0.760966
0.735125
0.710701
0.687531
1.63842
1.5171
1.41258
1.3219
1.24315
1.17515
1.11573
1.06452
1.01981
0.979497
0.94182
0.906166
0.873319
0.841549
0.811888
0.783698
0.757083
0.731735
0.707762
0.684916
1.63913
1.51833
1.4142
1.32382
1.24524
1.17704
1.11741
1.06526
1.01932
0.977798
0.939319
0.903617
0.87027
0.839173
0.809254
0.781398
0.755057
0.729998
0.706295
0.683635
1.63977
1.51947
1.41569
1.32559
1.24722
1.17894
1.11909
1.06638
1.01969
0.977382
0.938341
0.902309
0.868776
0.837436
0.807997
0.780229
0.754022
0.729115
0.705562
0.683011
1.64037
1.52053
1.41708
1.32724
1.24926
1.18077
1.12074
1.06768
1.02047
0.977662
0.938148
0.901767
0.868131
0.836959
0.807292
0.779741
0.753631
0.728841
0.705408
0.682945
1.64093
1.52151
1.41836
1.32877
1.2508
1.18242
1.12233
1.06913
1.02157
0.978405
0.938607
0.902157
0.868315
0.836926
0.807508
0.779938
0.753834
0.729091
0.705718
0.683302
1.64146
1.52243
1.41957
1.33018
1.25223
1.18394
1.12384
1.07055
1.02281
0.979416
0.939559
0.902938
0.86899
0.83756
0.808158
0.780578
0.754474
0.729752
0.706413
0.684031
1.64195
1.5233
1.4207
1.3315
1.25366
1.18542
1.12534
1.07202
1.02422
0.980732
0.940805
0.904104
0.87008
0.838597
0.809163
0.781556
0.755431
0.730705
0.707366
0.684982
1.64236
1.52402
1.42162
1.33254
1.25475
1.18655
1.12647
1.07322
1.02537
0.981882
0.941925
0.905214
0.87115
0.839632
0.810271
0.782502
0.756346
0.73159
0.70822
0.685812
1.74102
1.60228
1.55035
1.63758
3.57121
5.35515
1.69734
1.55106
1.42923
1.32784
1.27815
1.27284
1.7796
3.9797
4.4212
4.29221
4.21169
4.68499
4.61497
4.08975
1.62977
1.50229
1.39332
1.29921
1.2209
1.17641
1.37045
2.19073
21.183
7.7651
6.60307
5.68177
3.40244
3.0797
2.24764
1.63099
1.50426
1.39574
1.30215
1.22312
1.16587
1.21864
1.47038
2.23258
4.56892
9.32514
2.73365
2.29779
1.98455
1.75471
1.57037
1.41188
1.26983
1.63241
1.50664
1.39883
1.30574
1.22627
1.16384
1.15195
1.27221
1.51022
1.76646
1.92876
1.84058
1.4338
1.30542
1.19155
1.09869
1.02297
0.955836
0.897555
0.847452
1.63369
1.50885
1.40173
1.3091
1.22954
1.1641
1.12629
1.15253
1.19486
1.21821
1.1911
1.14277
1.07772
1.01678
0.960653
0.911053
0.867338
0.826857
0.789952
0.756614
1.63485
1.51085
1.40435
1.31213
1.23265
1.16597
1.11592
1.0987
1.09441
1.08491
1.05134
1.01094
0.966523
0.919791
0.880565
0.843711
0.809686
0.77767
0.747503
0.719764
1.63588
1.51265
1.40671
1.31495
1.23562
1.16818
1.11295
1.07572
1.04826
1.02181
0.987797
0.952206
0.915091
0.877569
0.843907
0.811873
0.781908
0.753478
0.726671
0.701612
1.63673
1.51411
1.40868
1.31739
1.23833
1.1707
1.11305
1.06731
1.02943
0.995054
0.959806
0.925025
0.890842
0.856507
0.825468
0.795793
0.767807
0.741156
0.715931
0.69216
1.63766
1.51575
1.4108
1.31979
1.24086
1.173
1.11423
1.06487
1.02233
0.984057
0.947424
0.912217
0.879224
0.846701
0.816704
0.788028
0.760927
0.735112
0.710669
0.687485
1.63843
1.5171
1.41259
1.32191
1.24314
1.17511
1.11577
1.06455
1.01981
0.979504
0.941807
0.906225
0.873248
0.841417
0.81189
0.78371
0.757072
0.731726
0.707727
0.684882
1.63913
1.51833
1.41421
1.32383
1.24523
1.17707
1.11742
1.06523
1.01931
0.977799
0.939321
0.903629
0.870262
0.838855
0.809381
0.781458
0.755079
0.730001
0.706265
0.683609
1.63978
1.51947
1.4157
1.3256
1.24722
1.17896
1.11909
1.06635
1.01967
0.977381
0.938341
0.90232
0.868777
0.837341
0.807981
0.780249
0.754029
0.729112
0.705534
0.682995
1.64038
1.52053
1.41709
1.32726
1.24923
1.18079
1.12075
1.06766
1.02046
0.977667
0.93815
0.901818
0.868122
0.836936
0.807217
0.779704
0.753617
0.728826
0.705376
0.68293
1.64094
1.52151
1.41838
1.32878
1.25084
1.18241
1.12231
1.0691
1.02156
0.978407
0.93861
0.902161
0.868321
0.836892
0.807407
0.779915
0.753844
0.729092
0.705696
0.683293
1.64146
1.52244
1.41958
1.33019
1.25227
1.18394
1.12383
1.07053
1.0228
0.979415
0.939561
0.902941
0.868998
0.837541
0.808069
0.780562
0.754492
0.72976
0.706397
0.684025
1.64195
1.52331
1.42071
1.33151
1.25368
1.18543
1.12534
1.07201
1.02421
0.980732
0.940808
0.904107
0.870088
0.838584
0.80909
0.781551
0.755453
0.730712
0.70735
0.684975
1.64236
1.52402
1.42163
1.33255
1.25476
1.18655
1.12647
1.07321
1.02536
0.981883
0.94193
0.905218
0.871158
0.839638
0.810247
0.782486
0.756354
0.731583
0.708197
0.685799
1.741
1.59681
1.51811
1.55623
3.34254
5.27713
1.69733
1.55105
1.42919
1.32677
1.2728
1.26406
1.73458
4.37611
5.09852
4.53555
3.89367
4.35082
4.32209
4.01474
1.62975
1.50227
1.39331
1.29918
1.22087
1.17542
1.36394
2.21051
21.2525
7.52447
6.26177
5.67038
3.45653
3.16266
2.33894
1.63099
1.50427
1.39575
1.30215
1.22312
1.16562
1.21579
1.46522
2.20034
4.33018
10.3726
2.72083
2.27045
1.95736
1.73235
1.57104
1.42651
1.28773
1.63241
1.50665
1.39884
1.30574
1.22626
1.1638
1.1513
1.26835
1.49188
1.71305
1.84306
1.75475
1.40262
1.29156
1.18783
1.09933
1.02469
0.959547
0.901618
0.851046
1.6337
1.50886
1.40173
1.3091
1.22953
1.16412
1.12628
1.15112
1.19045
1.21027
1.18399
1.13764
1.07358
1.0154
0.960839
0.911724
0.867813
0.827722
0.790854
0.757348
1.63485
1.51085
1.40436
1.31216
1.23266
1.16607
1.11603
1.09841
1.09338
1.08336
1.05027
1.0102
0.964745
0.921196
0.881138
0.843948
0.809681
0.777746
0.747766
0.719978
1.63589
1.51265
1.40672
1.31496
1.23563
1.16832
1.11302
1.07569
1.04809
1.02164
0.987792
0.952255
0.914646
0.8783
0.844259
0.812012
0.781872
0.753455
0.726676
0.70159
1.63678
1.51418
1.40874
1.3174
1.23831
1.1707
1.11306
1.0673
1.0294
0.995049
0.95984
0.925027
0.890917
0.856586
0.825519
0.795816
0.767782
0.741142
0.715926
0.692132
1.63766
1.51575
1.4108
1.31979
1.24085
1.173
1.11424
1.06486
1.02231
0.984048
0.947428
0.912135
0.879197
0.846834
0.816814
0.788092
0.760937
0.735106
0.710646
0.687449
1.63843
1.5171
1.41259
1.32191
1.24314
1.17509
1.11578
1.06457
1.01981
0.979508
0.941806
0.906251
0.873221
0.841439
0.811918
0.783736
0.757081
0.731725
0.707708
0.684854
1.63913
1.51833
1.41421
1.32384
1.24523
1.17708
1.11743
1.06522
1.01929
0.977794
0.939321
0.903633
0.870258
0.838778
0.809424
0.781511
0.755114
0.730018
0.706257
0.68359
1.63978
1.51947
1.41571
1.32561
1.24723
1.17898
1.1191
1.06634
1.01966
0.977373
0.938339
0.902323
0.868778
0.837322
0.808
0.780274
0.754044
0.729116
0.705522
0.68298
1.64038
1.52053
1.41709
1.32727
1.24922
1.18079
1.12075
1.06765
1.02046
0.977667
0.938152
0.901841
0.868133
0.836785
0.807317
0.779742
0.753629
0.728825
0.70536
0.682913
1.64094
1.52151
1.41838
1.32879
1.25086
1.18242
1.12231
1.06909
1.02155
0.978404
0.93861
0.90216
0.86833
0.836871
0.80742
0.779916
0.75385
0.729096
0.705688
0.683285
1.64146
1.52244
1.41959
1.3302
1.2523
1.18396
1.12383
1.07051
1.02279
0.979409
0.939559
0.90294
0.869011
0.837529
0.808062
0.780556
0.754497
0.729767
0.706393
0.68402
1.64196
1.52331
1.42072
1.33152
1.25369
1.18544
1.12534
1.072
1.02421
0.980729
0.940808
0.904107
0.870106
0.838577
0.809072
0.781545
0.75546
0.730718
0.707344
0.684969
1.64237
1.52402
1.42163
1.33256
1.25477
1.18656
1.12647
1.0732
1.02536
0.981881
0.941931
0.905221
0.871181
0.839675
0.810222
0.782472
0.756351
0.731578
0.708183
0.685786
1.741
1.59594
1.50684
1.51764
3.22991
5.2544
1.69733
1.55105
1.42915
1.32604
1.26692
1.25305
1.71069
4.71006
6.65274
5.71386
4.05417
4.2857
4.05899
3.94599
1.62973
1.50226
1.3933
1.29916
1.22077
1.17443
1.36213
2.27182
19.4151
7.24296
5.75871
5.30154
3.39018
3.18005
2.41977
1.631
1.50427
1.39575
1.30214
1.22311
1.16538
1.21418
1.47052
2.23253
4.40053
10.7322
2.71981
2.25082
1.9304
1.70606
1.55811
1.42873
1.29931
1.63241
1.50665
1.39884
1.30574
1.22626
1.16375
1.15071
1.26762
1.4894
1.69507
1.80208
1.69982
1.37318
1.27187
1.17674
1.0942
1.02288
0.960442
0.904019
0.853941
1.6337
1.50886
1.40174
1.3091
1.22953
1.16412
1.12616
1.15036
1.18784
1.20452
1.17771
1.13221
1.06911
1.01258
0.959551
0.911394
0.86788
0.828113
0.791473
0.758003
1.63485
1.51086
1.40436
1.31217
1.23267
1.16612
1.11607
1.09816
1.09248
1.0817
1.04894
1.00917
0.963545
0.921218
0.881432
0.8442
0.809788
0.777815
0.747908
0.720142
1.63589
1.51265
1.40672
1.31496
1.23564
1.16839
1.11309
1.07566
1.04789
1.0213
0.987646
0.952181
0.914409
0.878571
0.844604
0.812265
0.781978
0.753487
0.726683
0.701575
1.6368
1.51423
1.40879
1.31742
1.23831
1.17071
1.11308
1.06731
1.02937
0.994992
0.959841
0.925041
0.890945
0.856689
0.825625
0.795892
0.767809
0.741144
0.715918
0.692112
1.63766
1.51575
1.41081
1.3198
1.24085
1.173
1.11425
1.06487
1.02229
0.984028
0.94743
0.912097
0.879168
0.846899
0.816919
0.788184
0.760988
0.735124
0.710638
0.687423
1.63843
1.5171
1.41259
1.32192
1.24314
1.17508
1.11579
1.06457
1.01981
0.979507
0.941811
0.906265
0.873217
0.841456
0.81195
0.783769
0.757103
0.731735
0.707702
0.684835
1.63913
1.51833
1.41422
1.32384
1.24524
1.17709
1.11744
1.06522
1.01929
0.977788
0.93932
0.903635
0.870258
0.838749
0.809442
0.781548
0.755149
0.73004
0.706261
0.683582
1.63978
1.51947
1.41571
1.32561
1.24723
1.17898
1.11911
1.06633
1.01965
0.977365
0.938335
0.902323
0.868777
0.837311
0.808019
0.780299
0.754063
0.729127
0.70552
0.68297
1.64038
1.52053
1.41709
1.32727
1.24922
1.18079
1.12076
1.06765
1.02045
0.977665
0.938152
0.901852
0.868142
0.836718
0.807348
0.779777
0.753653
0.728836
0.705357
0.682903
1.64094
1.52151
1.41838
1.3288
1.25087
1.18243
1.12231
1.06908
1.02154
0.9784
0.938608
0.902159
0.868333
0.83685
0.80744
0.77993
0.753859
0.729102
0.705687
0.683279
1.64146
1.52244
1.41959
1.33021
1.25231
1.18397
1.12384
1.07051
1.02278
0.979403
0.939556
0.902938
0.869017
0.837508
0.808074
0.780563
0.754503
0.729772
0.706393
0.684017
1.64196
1.52331
1.42072
1.33152
1.2537
1.18544
1.12535
1.072
1.0242
0.980727
0.940807
0.904107
0.870114
0.838555
0.809081
0.781549
0.755465
0.730723
0.707344
0.684965
1.64237
1.52402
1.42163
1.33257
1.25477
1.18656
1.12647
1.0732
1.02536
0.981878
0.941931
0.905222
0.871192
0.839713
0.810219
0.782465
0.756346
0.731574
0.708174
0.685775
1.741
1.59583
1.50396
1.5019
3.17451
5.2382
1.69733
1.55105
1.42914
1.32563
1.26271
1.24313
1.69439
4.85569
8.5597
7.45697
5.39113
4.80382
3.97928
3.93178
1.62973
1.50225
1.39329
1.29914
1.22064
1.17348
1.36111
2.31863
16.546
7.04668
5.30086
4.73737
3.20179
3.11722
2.46283
1.631
1.50427
1.39575
1.30215
1.2231
1.16516
1.21327
1.47915
2.28141
4.51675
10.5598
2.71179
2.23361
1.90581
1.67904
1.53553
1.41771
1.30119
1.63241
1.50665
1.39885
1.30574
1.22626
1.1637
1.15027
1.2691
1.49615
1.70013
1.79534
1.67581
1.35243
1.25417
1.16358
1.08559
1.01787
0.95846
0.904267
0.855512
1.6337
1.50886
1.40174
1.3091
1.22954
1.16412
1.12604
1.15032
1.18729
1.20196
1.17365
1.12788
1.06513
1.00943
0.957517
0.910255
0.86735
0.828051
0.791743
0.758458
1.63485
1.51086
1.40436
1.31218
1.23268
1.16614
1.11607
1.09804
1.09199
1.08053
1.04772
1.00808
0.962515
0.920761
0.881412
0.844328
0.8099
0.777884
0.747986
0.720249
1.63589
1.51265
1.40673
1.31497
1.23565
1.16842
1.11313
1.07564
1.04775
1.02096
0.987405
0.952017
0.914204
0.878608
0.84483
0.81252
0.782163
0.753587
0.726725
0.70158
1.63681
1.51425
1.40882
1.31745
1.23832
1.17072
1.1131
1.06731
1.02934
0.994917
0.959806
0.925033
0.890953
0.856757
0.825734
0.795998
0.767882
0.741178
0.715923
0.6921
1.63766
1.51575
1.41081
1.3198
1.24085
1.173
1.11426
1.06487
1.02229
0.984003
0.947424
0.912075
0.879144
0.846925
0.817
0.78828
0.761065
0.735168
0.71065
0.687411
1.63843
1.5171
1.41259
1.32192
1.24314
1.17508
1.11579
1.06458
1.01981
0.979501
0.941812
0.906274
0.873221
0.841469
0.811984
0.783808
0.757137
0.731754
0.707705
0.684825
1.63913
1.51833
1.41422
1.32384
1.24524
1.17709
1.11745
1.06523
1.01929
0.977782
0.939319
0.903638
0.870259
0.83874
0.809458
0.78158
0.755184
0.730067
0.706274
0.683582
1.63978
1.51947
1.41571
1.32562
1.24723
1.17899
1.11912
1.06634
1.01964
0.97736
0.938332
0.902322
0.868777
0.837305
0.808036
0.780322
0.754086
0.729143
0.705526
0.682968
1.64038
1.52053
1.4171
1.32727
1.24922
1.1808
1.12076
1.06765
1.02045
0.977663
0.938151
0.901857
0.86815
0.836687
0.807361
0.779802
0.753677
0.728854
0.705364
0.682901
1.64094
1.52151
1.41838
1.3288
1.25088
1.18244
1.12232
1.06909
1.02154
0.978397
0.938606
0.902158
0.868335
0.836834
0.807458
0.779947
0.753873
0.729111
0.70569
0.683278
1.64146
1.52244
1.41959
1.33021
1.25232
1.18398
1.12384
1.07051
1.02278
0.979399
0.939552
0.902935
0.869018
0.83749
0.808091
0.780575
0.754513
0.72978
0.706396
0.684017
1.64196
1.52331
1.42072
1.33152
1.25371
1.18545
1.12535
1.07201
1.0242
0.980726
0.940806
0.904106
0.870118
0.838536
0.809098
0.78156
0.755473
0.73073
0.707347
0.684964
1.64237
1.52402
1.42164
1.33257
1.25478
1.18657
1.12647
1.0732
1.02535
0.981876
0.94193
0.905222
0.871198
0.839741
0.810239
0.782474
0.756348
0.731573
0.708169
0.685767
1.741
1.59582
1.50339
1.49678
3.14674
5.2255
1.69733
1.55105
1.42913
1.32542
1.26022
1.23599
1.68141
4.88422
9.89342
8.77886
7.06642
5.89789
4.32411
4.0444
1.62973
1.50224
1.39328
1.29912
1.22052
1.17263
1.35943
2.33758
13.5346
6.93421
5.00073
4.22194
2.95555
2.97438
2.44972
1.631
1.50427
1.39575
1.30214
1.22309
1.16496
1.2125
1.48457
2.31496
4.61045
10.4072
2.70725
2.22247
1.88616
1.65436
1.50912
1.39668
1.29266
1.63241
1.50665
1.39885
1.30574
1.22626
1.16366
1.14994
1.27089
1.50437
1.71367
1.80619
1.67348
1.34186
1.2422
1.15232
1.07636
1.01113
0.954189
0.902364
0.85543
1.6337
1.50886
1.40174
1.3091
1.22954
1.16412
1.12593
1.15064
1.18797
1.20193
1.17202
1.12529
1.06223
1.00666
0.955345
0.908708
0.866347
0.827564
0.791638
0.758636
1.63485
1.51086
1.40436
1.31218
1.23269
1.16615
1.11606
1.09804
1.09191
1.08002
1.04691
1.00716
0.961616
0.920132
0.881173
0.844314
0.809965
0.77794
0.74803
0.720306
1.63589
1.51265
1.40673
1.31497
1.23566
1.16844
1.11315
1.07563
1.04768
1.02074
0.987164
0.951826
0.914002
0.878515
0.844913
0.812708
0.782359
0.753731
0.726807
0.701613
1.63681
1.51426
1.40884
1.31747
1.23834
1.17074
1.11312
1.06732
1.02933
0.994855
0.959754
0.925004
0.890938
0.856784
0.825817
0.796108
0.767982
0.741245
0.715953
0.692102
1.63766
1.51575
1.41081
1.31981
1.24086
1.17301
1.11426
1.06488
1.02229
0.983983
0.947409
0.91206
0.879124
0.84693
0.817052
0.788364
0.761151
0.735231
0.710683
0.687417
1.63843
1.5171
1.41259
1.32192
1.24314
1.17508
1.11579
1.06458
1.01982
0.979495
0.941809
0.906279
0.873224
0.84148
0.812013
0.783848
0.757176
0.731784
0.70772
0.684826
1.63913
1.51833
1.41422
1.32384
1.24524
1.17709
1.11745
1.06523
1.01929
0.977778
0.939316
0.903639
0.870261
0.838739
0.80947
0.781606
0.755217
0.730097
0.706293
0.683589
1.63978
1.51947
1.41571
1.32562
1.24724
1.17899
1.11912
1.06634
1.01965
0.977356
0.938329
0.902322
0.868777
0.837303
0.808045
0.78034
0.754108
0.729162
0.705538
0.682971
1.64038
1.52053
1.4171
1.32728
1.24922
1.1808
1.12076
1.06766
1.02045
0.97766
0.93815
0.90186
0.868155
0.836677
0.807363
0.779816
0.753697
0.728872
0.705376
0.682905
1.64094
1.52151
1.41839
1.3288
1.25088
1.18244
1.12232
1.06909
1.02154
0.978395
0.938605
0.902158
0.868336
0.836828
0.807465
0.779959
0.753886
0.729122
0.705697
0.683281
1.64146
1.52244
1.41959
1.33021
1.25232
1.18398
1.12385
1.07052
1.02278
0.979398
0.93955
0.902933
0.869018
0.837482
0.808095
0.780584
0.754523
0.729788
0.706402
0.68402
1.64196
1.52331
1.42072
1.33153
1.25371
1.18545
1.12536
1.07201
1.0242
0.980726
0.940806
0.904106
0.87012
0.838529
0.809102
0.781568
0.755482
0.730737
0.707352
0.684966
1.64237
1.52402
1.42164
1.33257
1.25478
1.18657
1.12648
1.07321
1.02536
0.981875
0.941929
0.905221
0.8712
0.839755
0.810256
0.782486
0.756356
0.731576
0.708168
0.685763
1.741
1.59581
1.50329
1.49544
3.13561
5.21464
1.69733
1.55105
1.42913
1.32533
1.25892
1.23153
1.67202
4.87281
10.0559
9.1219
7.41926
6.47622
5.15813
4.46448
1.62972
1.50224
1.39327
1.29911
1.22042
1.17195
1.35738
2.33932
12.2887
6.9221
4.87049
3.88824
2.72643
2.77674
2.37412
1.631
1.50427
1.39575
1.30214
1.22308
1.16479
1.21173
1.48597
2.32845
4.65569
10.3808
2.71215
2.22106
1.87474
1.63531
1.48341
1.37123
1.27589
1.63241
1.50665
1.39885
1.30575
1.22626
1.16362
1.14966
1.27193
1.50962
1.7254
1.82063
1.6813
1.33916
1.23623
1.14478
1.06865
1.00434
0.948956
0.898941
0.85381
1.6337
1.50886
1.40174
1.30911
1.22954
1.16411
1.12583
1.15093
1.18891
1.20304
1.17205
1.12427
1.06054
1.00462
0.953471
0.907133
0.865119
0.826746
0.791183
0.75848
1.63485
1.51086
1.40436
1.31218
1.23269
1.16616
1.11605
1.09809
1.09204
1.08
1.04654
1.00659
0.960937
0.919498
0.880804
0.844176
0.80996
0.777966
0.748051
0.720327
1.63589
1.51265
1.40673
1.31497
1.23566
1.16845
1.11316
1.07564
1.04767
1.02065
0.986991
0.95166
0.913823
0.878365
0.844885
0.812801
0.782515
0.753879
0.726914
0.701672
1.63682
1.51427
1.40886
1.31748
1.23835
1.17075
1.11313
1.06732
1.02933
0.994821
0.959704
0.924964
0.890907
0.856779
0.825863
0.796198
0.768087
0.741332
0.716007
0.692123
1.63766
1.51575
1.41082
1.31981
1.24086
1.17301
1.11427
1.06488
1.0223
0.983975
0.947392
0.912048
0.879106
0.846922
0.817078
0.788427
0.761232
0.735305
0.710733
0.687442
1.63843
1.5171
1.41259
1.32192
1.24314
1.17508
1.11579
1.06458
1.01982
0.979493
0.941803
0.90628
0.873225
0.841485
0.812032
0.783883
0.757218
0.731821
0.707745
0.684837
1.63913
1.51833
1.41422
1.32384
1.24524
1.17709
1.11745
1.06524
1.01929
0.977778
0.939313
0.903639
0.870261
0.838739
0.809479
0.781627
0.755248
0.730128
0.706317
0.683603
1.63978
1.51947
1.41571
1.32562
1.24724
1.179
1.11912
1.06634
1.01965
0.977355
0.938327
0.902321
0.868777
0.837302
0.808051
0.780354
0.754128
0.729182
0.705552
0.682979
1.64038
1.52053
1.4171
1.32728
1.24922
1.1808
1.12076
1.06766
1.02045
0.977659
0.938148
0.90186
0.868158
0.836675
0.807364
0.779825
0.753712
0.728888
0.705389
0.682914
1.64094
1.52151
1.41839
1.32881
1.25089
1.18245
1.12233
1.06909
1.02154
0.978395
0.938604
0.902157
0.868337
0.836825
0.807467
0.779967
0.753897
0.729133
0.705705
0.683286
1.64146
1.52244
1.41959
1.33021
1.25232
1.18399
1.12386
1.07052
1.02278
0.979398
0.93955
0.902932
0.869018
0.837478
0.808096
0.78059
0.754531
0.729797
0.706409
0.684024
1.64196
1.52331
1.42072
1.33153
1.25371
1.18546
1.12536
1.07201
1.02421
0.980727
0.940806
0.904106
0.870121
0.838526
0.809104
0.781573
0.755489
0.730745
0.707358
0.68497
1.64237
1.52402
1.42164
1.33257
1.25478
1.18658
1.12648
1.07321
1.02536
0.981876
0.941928
0.905221
0.871201
0.839762
0.810267
0.782498
0.756366
0.731583
0.708171
0.685762
1.741
1.59581
1.50327
1.49514
3.13222
5.20882
1.69733
1.55105
1.42913
1.32529
1.25831
1.22904
1.66593
4.86118
9.3546
8.72547
7.08579
6.17087
5.86674
5.04476
1.62972
1.50223
1.39327
1.2991
1.22035
1.17145
1.35552
2.33597
12.8178
7.03422
4.88859
3.73413
2.55884
2.57645
2.2503
1.631
1.50427
1.39575
1.30214
1.22306
1.16464
1.21101
1.48526
2.33041
4.65875
10.3995
2.72135
2.22732
1.87203
1.62373
1.4623
1.34582
1.25441
1.63241
1.50665
1.39885
1.30575
1.22626
1.16359
1.14939
1.27216
1.51162
1.73161
1.83088
1.69057
1.34076
1.23471
1.14098
1.0634
0.998698
0.943754
0.894756
0.851024
1.6337
1.50886
1.40174
1.30911
1.22955
1.16411
1.12575
1.15106
1.18956
1.2042
1.17275
1.12428
1.05987
1.0034
0.952098
0.905797
0.863913
0.825757
0.790476
0.758045
1.63485
1.51085
1.40436
1.31218
1.2327
1.16617
1.11603
1.09812
1.0922
1.08019
1.04648
1.00633
0.960524
0.918984
0.880391
0.843941
0.809871
0.777951
0.748051
0.720324
1.63589
1.51265
1.40673
1.31497
1.23566
1.16846
1.11317
1.07564
1.04769
1.02064
0.986893
0.951539
0.913685
0.878214
0.844793
0.812808
0.782608
0.754001
0.727023
0.701746
1.63682
1.51427
1.40886
1.31749
1.23836
1.17076
1.11314
1.06733
1.02933
0.994809
0.959667
0.924923
0.890869
0.85675
0.825873
0.796257
0.768179
0.741425
0.716079
0.692164
1.63766
1.51575
1.41082
1.31981
1.24087
1.17302
1.11428
1.06489
1.0223
0.983975
0.947378
0.912036
0.879091
0.846907
0.817083
0.788466
0.761298
0.735376
0.710793
0.687482
1.63843
1.5171
1.41259
1.32192
1.24315
1.17508
1.11579
1.06459
1.01983
0.979496
0.941799
0.906278
0.873224
0.841485
0.812043
0.783909
0.757257
0.73186
0.707777
0.684858
1.63913
1.51833
1.41422
1.32384
1.24524
1.1771
1.11746
1.06524
1.0193
0.977781
0.939311
0.903638
0.870261
0.838738
0.809483
0.781643
0.755274
0.730158
0.706345
0.683622
1.63978
1.51947
1.41571
1.32562
1.24724
1.179
1.11913
1.06635
1.01965
0.977357
0.938326
0.90232
0.868776
0.837302
0.808054
0.780363
0.754144
0.7292
0.705569
0.682992
1.64038
1.52053
1.4171
1.32728
1.24922
1.1808
1.12076
1.06766
1.02046
0.97766
0.938147
0.90186
0.868159
0.836674
0.807365
0.779831
0.753724
0.728902
0.705403
0.682926
1.64094
1.52151
1.41839
1.32881
1.25089
1.18245
1.12233
1.06909
1.02154
0.978396
0.938604
0.902157
0.868337
0.836825
0.807469
0.779972
0.753905
0.729143
0.705714
0.683293
1.64146
1.52244
1.41959
1.33021
1.25233
1.18399
1.12386
1.07052
1.02278
0.979399
0.93955
0.902931
0.869017
0.837476
0.808096
0.780593
0.754537
0.729804
0.706416
0.68403
1.64196
1.52331
1.42072
1.33153
1.25371
1.18546
1.12536
1.07202
1.02421
0.980728
0.940807
0.904107
0.870121
0.838525
0.809104
0.781576
0.755495
0.730751
0.707365
0.684975
1.64237
1.52402
1.42164
1.33257
1.25478
1.18658
1.12648
1.07321
1.02536
0.981876
0.941928
0.905221
0.871201
0.839765
0.810275
0.782508
0.756376
0.731591
0.708177
0.685765
1.741
1.59581
1.50327
1.49508
3.13131
5.20677
1.69733
1.55105
1.42912
1.32528
1.25805
1.22778
1.66228
4.85501
8.38031
8.10449
6.57689
5.62599
5.68005
5.21075
1.62972
1.50223
1.39327
1.29909
1.22031
1.17111
1.35409
2.33284
13.683
7.25084
5.03332
3.72488
2.46521
2.42548
2.11114
1.631
1.50427
1.39575
1.30214
1.22305
1.16453
1.2104
1.48407
2.32878
4.65352
10.4209
2.73005
2.23702
1.87565
1.61933
1.44857
1.32489
1.23251
1.63241
1.50665
1.39885
1.30575
1.22626
1.16356
1.14917
1.27196
1.51177
1.73358
1.83565
1.69708
1.34368
1.23564
1.14
1.06058
0.994751
0.9394
0.890608
0.847636
1.6337
1.50886
1.40174
1.30911
1.22955
1.1641
1.12567
1.15104
1.18984
1.20494
1.17347
1.12469
1.05983
1.00286
0.951239
0.904803
0.862902
0.824791
0.789657
0.757428
1.63485
1.51085
1.40436
1.31218
1.2327
1.16617
1.11601
1.09812
1.09229
1.08038
1.04654
1.00627
0.960326
0.918645
0.880018
0.843658
0.809713
0.777881
0.748025
0.7203
1.63589
1.51265
1.40673
1.31497
1.23567
1.16846
1.11317
1.07565
1.0477
1.02067
0.986848
0.951457
0.913584
0.878085
0.84468
0.81276
0.782638
0.75408
0.727115
0.701821
1.63682
1.51428
1.40887
1.3175
1.23837
1.17077
1.11315
1.06734
1.02933
0.994808
0.959639
0.924884
0.890829
0.85671
0.825853
0.796281
0.768245
0.741508
0.716158
0.69222
1.63766
1.51575
1.41082
1.31981
1.24087
1.17302
1.11429
1.06489
1.0223
0.983978
0.947367
0.912023
0.879077
0.846889
0.817074
0.788484
0.761346
0.735439
0.710855
0.687532
1.63843
1.5171
1.41259
1.32192
1.24315
1.17509
1.1158
1.06459
1.01983
0.979501
0.941796
0.906273
0.87322
0.841481
0.812045
0.783926
0.757288
0.731898
0.707813
0.684885
1.63913
1.51833
1.41422
1.32384
1.24524
1.1771
1.11746
1.06524
1.0193
0.977784
0.939311
0.903635