/*--------------------------------*- C++ -*----------------------------------*\
  =========                 |
  \\      /  F ield         | OpenFOAM: The Open Source CFD Toolbox
   \\    /   O peration     | Website:  https://openfoam.org
    \\  /    A nd           | Version:  10
     \\/     M anipulation  |
\*---------------------------------------------------------------------------*/
FoamFile
{
    format      ascii;
    class       volScalarField;
    location    "2000";
    object      p;
}
// * * * * * * * * * * * * * * * * * * * * * * * * * * * * * * * * * * * * * //

dimensions      [0 2 -2 0 0 0 0];

internalField   nonuniform List<scalar> 
55398
(
64.3514
52.6158
59.3673
61.7512
67.923
81.7126
57.0951
52.8673
56.8019
59.9164
66.3097
78.5176
96.2154
119.141
-54.1497
-37.9965
-19.753
-5.25482
0.497225
1.74468
53.2525
51.9544
54.1232
57.5152
62.2398
69.3821
73.2079
63.7584
-54.3389
-53.8504
-36.7672
-19.1957
-7.30553
-3.55931
0.00467501
51.009
50.0839
51.3482
53.5524
55.8399
57.1711
50.8732
26.0953
-118.646
-193.85
-88.6548
-62.4063
-48.8655
-32.6026
-17.8173
-7.97371
-5.11868
-0.910422
48.627
47.928
48.3743
49.2301
49.1866
46.1805
33.5981
-12.2431
-103.573
-169.677
-215.742
-161.95
-96.9078
-63.9752
-48.7298
-33.3056
-19.4203
-9.96455
-6.17924
-1.80632
46.2148
45.5931
45.3162
44.9023
42.9079
36.8268
21.4343
-20.2582
-100.147
-146.39
-167.555
-131.447
-86.1062
-63.9131
-48.6282
-34.0379
-20.9557
-11.7401
-7.01007
-2.49442
43.802
43.1708
42.2687
40.727
37.1209
29.1168
12.2349
-22.6382
-83.3365
-123.199
-136.052
-116.837
-83.6648
-62.9898
-48.5386
-34.7119
-22.3443
-13.2482
-7.69897
-3.00198
41.4328
40.7514
39.3164
36.8241
31.965
22.7832
5.69767
-24.3143
-71.9575
-105.648
-117.462
-105.425
-80.5818
-61.6081
-47.8748
-34.9825
-23.3285
-14.4318
-8.25135
-3.38231
39.1481
38.3737
36.4913
33.2482
27.5281
17.6678
0.914727
-25.2777
-63.1298
-91.6583
-102.786
-95.1725
-76.3232
-59.7469
-46.9405
-35.1136
-24.1095
-15.4242
-8.72441
-3.68948
37.006
36.1214
33.8726
30.0406
23.7167
13.5135
-2.49892
-25.6595
-56.3872
-80.664
-90.8788
-86.5564
-72.4482
-58.1375
-46.2121
-35.1651
-24.7006
-16.1925
-9.10084
-3.90714
35.0377
34.0653
31.527
27.24
20.4844
10.1834
-5.06336
-25.7435
-51.2349
-71.9521
-81.4084
-79.3464
-68.6238
-56.3169
-45.2462
-34.9464
-25.021
-16.7327
-9.37219
-4.07091
33.2615
32.2121
29.4457
24.8168
17.7831
7.5037
-6.91699
-25.555
-47.2109
-65.0897
-73.8855
-73.2645
-65.158
-54.6795
-44.4152
-34.7802
-25.2798
-17.1927
-9.62058
-4.21203
31.6989
30.586
27.6437
22.7668
15.5632
5.40942
-8.26663
-25.2655
-44.0652
-59.7615
-67.9018
-68.2721
-62.1364
-53.1402
-43.6403
-34.5
-25.3758
-17.4753
-9.7682
-4.29421
30.3684
29.2061
26.1318
21.0803
13.7941
3.78758
-9.24246
-24.9529
-41.5965
-55.6992
-63.2756
-64.2349
-59.6012
-51.7765
-42.9164
-34.2388
-25.4307
-17.7008
-9.9045
-4.37631
29.2856
28.0863
24.9164
19.7431
12.4093
2.56967
-9.94203
-24.6925
-39.7262
-52.5749
-59.6963
-61.0986
-57.6093
-50.6671
-42.3362
-34.0146
-25.4387
-17.8417
-9.98561
-4.41963
28.4622
27.2369
24.0012
18.7465
11.3935
1.67905
-10.4321
-24.4383
-38.4679
-50.2363
-57.0534
-58.9128
-56.148
-49.8222
-41.8917
-33.827
-25.4289
-17.9398
-10.0495
-4.45944
27.9077
26.6656
23.3887
18.0858
10.7281
1.09726
-10.7302
-24.2664
-37.6033
-48.8211
-55.5504
-57.298
-55.1176
-49.2232
-41.5639
-33.6875
-25.4062
-17.9925
-10.0831
-4.47827
27.6289
26.378
23.0812
17.7553
10.3922
0.804259
-10.8868
-24.2213
-37.1624
-48.1548
-54.7822
-56.4105
-54.6537
-48.9523
-41.4104
-33.6184
-25.3968
-18.0222
-10.103
-4.49202
64.1696
52.7239
59.2759
61.5051
68.5356
82.4928
57.0069
52.8536
56.6421
59.8933
66.2744
78.2772
97.1619
124.419
-51.6043
-35.6037
-19.9366
-4.84211
0.182878
3.36521
53.2018
51.8788
54.004
57.3899
62.0128
68.9678
72.218
64.7309
-57.302
-51.0145
-34.8348
-18.5491
-5.77802
-2.39617
1.13922
50.984
50.0001
51.24
53.4327
55.6359
56.8264
50.2339
26.3356
-121.667
-189.103
-89.8356
-60.2281
-47.6333
-31.494
-17.477
-7.90309
-5.49041
-0.745649
48.6019
47.8455
48.2684
49.11
49.0016
45.9457
33.0962
-11.6907
-101.976
-167.246
-209.696
-162.338
-91.5956
-64.273
-48.2913
-32.5618
-19.112
-10.0757
-6.25509
-1.71463
46.1917
45.5145
45.216
44.7912
42.7514
36.6532
21.1285
-19.9023
-99.226
-145.343
-160.548
-131.797
-87.3422
-64.1708
-48.377
-33.5898
-20.7904
-11.8213
-7.0158
-2.43238
43.7803
43.097
42.1773
40.6422
37.0237
29.0481
12.0739
-22.5361
-82.8805
-122.483
-135.431
-116.416
-84.149
-63.1632
-48.3426
-34.404
-22.2217
-13.3
-7.68512
-2.96639
41.4132
40.6859
39.2372
36.7603
31.9387
22.7539
5.6687
-24.225
-71.605
-105.157
-117.022
-105.3
-80.8748
-61.7667
-47.7389
-34.804
-23.2531
-14.4603
-8.24012
-3.34618
39.1395
38.3429
36.454
33.2136
27.515
17.6812
0.926652
-25.2247
-62.9743
-91.3504
-102.413
-95.0711
-76.5336
-59.9034
-46.9207
-34.9941
-24.0592
-15.4382
-8.71608
-3.65411
37.0048
36.1212
33.8722
30.0368
23.7113
13.5216
-2.48279
-25.6366
-56.3099
-80.4685
-90.6098
-86.4771
-72.5741
-58.2427
-46.1858
-35.0868
-24.6613
-16.199
-9.08408
-3.88082
35.0368
34.0661
31.5285
27.2378
20.4832
10.1919
-5.04355
-25.7186
-51.1804
-71.8651
-81.2489
-79.2456
-68.6993
-56.3927
-45.2378
-34.9107
-24.986
-16.7375
-9.35807
-4.05033
33.2608
32.2126
29.4468
24.8153
17.782
7.50629
-6.89667
-25.5431
-47.198
-65.0496
-73.7965
-73.2006
-65.1656
-54.7595
-44.4078
-34.7606
-25.2595
-17.1925
-9.60784
-4.19513
31.6984
30.5863
27.6447
22.7662
15.5633
5.41565
-8.25497
-25.2617
-44.0551
-59.7271
-67.8434
-68.2419
-62.1345
-53.194
-43.6705
-34.4921
-25.3624
-17.4751
-9.75889
-4.28189
30.3682
29.2063
26.1326
21.0802
13.7931
3.79692
-9.23583
-24.9507
-41.5838
-55.6744
-63.2374
-64.2171
-59.6001
-51.8077
-42.9325
-34.2378
-25.4202
-17.7001
-9.89764
-4.36667
29.2855
28.0865
24.9172
19.7434
12.4121
2.57676
-9.9374
-24.692
-39.7208
-52.5596
-59.6751
-61.0906
-57.6098
-50.6829
-42.345
-34.0125
-25.4314
-17.8416
-9.98118
-4.41265
28.4623
27.2371
24.0019
18.7472
11.3982
1.68053
-10.4291
-24.4384
-38.4663
-50.228
-57.0449
-58.9091
-56.1504
-49.8326
-41.8922
-33.8243
-25.4221
-17.939
-10.0466
-4.45444
27.9079
26.6657
23.3892
18.0863
10.7281
1.09834
-10.7309
-24.2688
-37.6041
-48.8199
-55.55
-57.2987
-55.1197
-49.2286
-41.5625
-33.6813
-25.4014
-17.9925
-10.082
-4.47483
27.629
26.378
23.0815
17.7554
10.392
0.803583
-10.8889
-24.2242
-37.1647
-48.1562
-54.7844
-56.4133
-54.6565
-48.955
-41.4104
-33.6124
-25.394
-18.0217
-10.1019
-4.48901
64.1809
52.8022
59.2536
61.1982
68.3299
82.6422
57.0011
52.8819
56.6241
59.7835
66.1486
77.9966
94.9855
119.188
-50.6457
-32.8541
-18.5816
-6.45202
-0.373512
2.41273
53.1941
51.8545
53.9691
57.2903
61.8597
68.5796
70.3798
60.866
-68.8475
-49.9939
-31.8396
-17.3071
-6.23627
-3.31427
0.7364
50.9699
49.9614
51.192
53.3097
55.4395
56.4546
49.0258
25.0428
-120.234
-188.803
-90.2287
-63.5606
-46.9635
-30.0131
-16.5632
-8.2155
-5.8463
-0.860043
48.5885
47.8051
48.2199
48.9922
48.8212
45.6524
32.2388
-11.5094
-100.272
-166.818
-207.709
-160.774
-92.0185
-65.8236
-48.1471
-31.6843
-18.5448
-10.1994
-6.42851
-1.80886
46.1802
45.4768
45.1702
44.6845
42.5984
36.4223
20.6477
-19.8552
-98.5751
-144.891
-159.596
-131.435
-87.3614
-64.5853
-48.2562
-33.0474
-20.4817
-11.8814
-7.10881
-2.51628
43.7699
43.0633
42.1368
40.5512
36.9073
28.8862
11.8553
-22.4064
-82.296
-121.884
-135.259
-116.107
-84.3042
-63.3681
-48.2906
-34.1103
-22.0301
-13.3154
-7.72649
-3.02614
41.4045
40.6575
39.203
36.6889
31.8545
22.7259
5.57593
-24.0635
-71.1725
-104.699
-116.791
-105.188
-81.0639
-61.9723
-47.7443
-34.6373
-23.1375
-14.4611
-8.25002
-3.38992
39.1332
38.3232
36.4284
33.1603
27.451
17.6466
0.942733
-25.1108
-62.6687
-91.0328
-102.169
-94.9143
-76.6143
-60.0038
-46.9071
-34.8932
-23.9843
-15.4316
-8.71338
-3.68361
37.0004
36.1099
33.8554
29.9957
23.6618
13.4993
-2.48576
-25.552
-56.1071
-80.2459
-90.4138
-86.3199
-72.5724
-58.2976
-46.167
-35.0218
-24.6088
-16.1897
-9.08101
-3.90117
35.0338
34.0583
31.5157
27.2055
20.4451
10.1571
-5.02126
-25.6413
-51.0838
-71.7217
-81.1119
-79.0994
-68.6482
-56.4185
-45.2236
-34.8731
-24.9531
-16.7314
-9.35579
-4.06348
33.2585
32.2068
29.4376
24.7917
17.7544
7.4968
-6.88858
-25.503
-47.1382
-64.9657
-73.7088
-73.0831
-65.1134
-54.7306
-44.4005
-34.7402
-25.2365
-17.1852
-9.60327
-4.20297
31.6967
30.5821
27.6382
22.7495
15.5458
5.40979
-8.24064
-25.229
-44.0112
-59.6747
-67.7861
-68.1581
-62.1003
-53.1705
-43.6377
-34.4816
-25.346
-17.4694
-9.75561
-4.28735
30.3671
29.2034
26.1284
21.0688
13.782
3.802
-9.21903
-24.925
-41.5544
-55.6409
-63.2016
-64.1747
-59.58
-51.8158
-42.906
-34.2308
-25.4064
-17.6942
-9.89368
-4.36913
29.2848
28.0846
24.9147
19.7368
12.4124
2.58431
-9.91836
-24.6722
-39.7024
-52.5393
-59.6536
-61.0714
-57.6126
-50.6916
-42.3498
-34.0063
-25.4209
-17.8377
-9.97848
-4.41407
28.462
27.2361
24.0008
18.7444
11.3983
1.68986
-10.4132
-24.4241
-38.4551
-50.2164
-57.035
-58.8998
-56.1534
-49.8402
-41.8927
-33.8175
-25.4125
-17.9353
-10.0442
-4.45458
27.9079
26.6654
23.389
18.0855
10.7295
1.10518
-10.7202
-24.2598
-37.5976
-48.8146
-55.547
-57.2959
-55.1239
-49.2345
-41.5582
-33.6768
-25.3945
-17.99
-10.0806
-4.47429
27.6291
26.378
23.0819
17.7559
10.394
0.807471
-10.8836
-24.2204
-37.1621
-48.1546
-54.7847
-56.4143
-54.6608
-48.9591
-41.408
-33.6062
-25.3909
-18.0206
-10.1021
-4.48859
64.1871
52.8236
59.267
61.1542
68.3242
82.7969
57.0098
52.8991
56.6361
59.7503
66.1628
78.0549
95.0029
119.536
-51.0809
-30.3543
-16.1334
-6.22485
-1.09027
1.92069
53.2045
51.8604
53.9901
57.2872
61.8671
68.5992
70.2521
61.4823
-82.3459
-49.9807
-28.8227
-15.4413
-5.86489
-3.552
0.671189
50.974
49.97
51.2153
53.3155
55.4485
56.5179
48.9731
25.5526
-120.547
-189.152
-94.176
-66.7717
-46.7113
-28.4478
-15.3637
-8.14924
-5.888
-0.761156
48.5927
47.8127
48.2417
49.0018
48.8325
45.7089
32.183
-11.4053
-100.414
-166.902
-207.231
-160.402
-92.2446
-67.4073
-48.1429
-30.7703
-17.8041
-10.111
-6.45288
-1.78173
46.1843
45.4836
45.1903
44.6943
42.6098
36.4598
20.6201
-19.8071
-98.6405
-145.007
-159.583
-131.722
-87.51
-65.1419
-48.2644
-32.4929
-20.0382
-11.8245
-7.11062
-2.4978
43.7735
43.0696
42.1549
40.5588
36.9155
28.9171
11.8657
-22.3753
-82.3112
-121.967
-135.495
-116.346
-84.2475
-63.608
-48.3793
-33.8324
-21.7712
-13.2672
-7.72651
-3.01091
41.4076
40.6627
39.2178
36.694
31.8583
22.7324
5.60072
-24.0412
-71.1743
-104.769
-116.905
-105.388
-81.0475
-62.0969
-47.8023
-34.4737
-22.978
-14.4447
-8.25036
-3.38238
39.1351
38.3258
36.4363
33.1607
27.4486
17.6462
0.953309
-25.1116
-62.6672
-91.0713
-102.252
-95.0271
-76.597
-60.0029
-46.9195
-34.802
-23.8861
-15.4212
-8.71364
-3.67826
37.0008
36.1093
33.8568
29.9917
23.6566
13.5052
-2.48481
-25.5531
-56.0993
-80.2644
-90.4589
-86.3628
-72.561
-58.3161
-46.169
-34.9699
-24.5476
-16.1834
-9.08176
-3.89683
35.0339
34.0571
31.5152
27.2009
20.4399
10.166
-5.02163
-25.6438
-51.0798
-71.7263
-81.1418
-79.1248
-68.6095
-56.42
-45.2137
-34.8418
-24.9157
-16.7291
-9.35709
-4.05992
33.2586
32.2057
29.437
24.788
17.7509
7.50232
-6.88893
-25.5028
-47.1372
-64.9684
-73.7234
-73.0877
-65.1199
-54.6955
-44.3857
-34.7092
-25.2091
-17.1837
-9.60344
-4.19982
31.6967
30.5813
27.6377
22.7465
15.5442
5.41056
-8.24114
-25.2264
-44.0081
-59.6768
-67.7931
-68.1574
-62.1101
-53.1305
-43.5874
-34.4602
-25.3265
-17.4694
-9.75633
-4.28503
30.367
29.2028
26.1281
21.0664
13.7834
3.80291
-9.21868
-24.9233
-41.5535
-55.6434
-63.207
-64.1728
-59.5839
-51.7798
-42.8774
-34.2176
-25.3939
-17.6946
-9.89375
-4.36665
29.2848
28.0842
24.9144
19.7354
12.4142
2.58617
-9.91633
-24.6705
-39.7018
-52.5413
-59.6569
-61.0724
-57.6149
-50.6687
-42.3301
-33.9989
-25.4122
-17.8388
-9.97876
-4.41227
28.462
27.2359
24.0005
18.7437
11.3983
1.69066
-10.4121
-24.4229
-38.4548
-50.2175
-57.0372
-58.9022
-56.1551
-49.825
-41.8755
-33.8111
-25.4053
-17.9361
-10.0441
-4.45295
27.9079
26.6652
23.3889
18.0851
10.7291
1.10553
-10.7193
-24.2586
-37.5971
-48.815
-55.5485
-57.2981
-55.1273
-49.2273
-41.5459
-33.6729
-25.3892
-17.9907
-10.0803
-4.47303
27.6291
26.378
23.0817
17.7556
10.3936
0.807471
-10.8833
-24.2196
-37.162
-48.155
-54.786
-56.4167
-54.665
-48.9587
-41.4008
-33.6022
-25.3876
-18.0217
-10.1019
-4.48753
64.1952
52.8313
59.2746
61.1173
68.3371
82.902
57.0167
52.9072
56.6357
59.7314
66.1707
78.0835
95.0047
119.494
-53.6933
-28.308
-13.3094
-5.29139
-1.26194
1.3429
53.2103
51.8645
54.0009
57.2944
61.8867
68.6737
70.3193
61.4211
-86.2037
-51.8616
-26.3412
-12.9401
-4.84172
-2.91822
0.812521
50.9781
49.9765
51.2292
53.3322
55.4735
56.6157
49.0457
25.6083
-120.447
-189.084
-99.8204
-69.7951
-47.4656
-27.0989
-14.0866
-7.68577
-5.62996
-0.565796
48.5978
47.8195
48.2557
49.0207
48.8568
45.7924
32.2175
-11.4029
-100.371
-166.871
-206.883
-160.223
-92.7342
-68.7082
-48.618
-30.0684
-17.0232
-9.71783
-6.27114
-1.69156
46.1889
45.4896
45.2035
44.712
42.6309
36.521
20.6393
-19.7956
-98.704
-145.051
-159.656
-131.961
-88.0049
-65.8146
-48.5579
-32.0719
-19.5313
-11.577
-7.00408
-2.42529
43.7776
43.0747
42.1663
40.5737
36.9329
28.9604
11.8838
-22.3797
-82.3821
-122.068
-135.579
-116.605
-84.2484
-63.9548
-48.5343
-33.6043
-21.4656
-13.1072
-7.65225
-2.95811
41.4112
40.6668
39.227
36.7056
31.8724
22.755
5.61128
-24.0604
-71.229
-104.866
-116.948
-105.598
-80.9807
-62.1817
-47.8859
-34.3376
-22.7852
-14.3363
-8.20175
-3.34623
39.1378
38.3287
36.4433
33.1691
27.4582
17.6584
0.955204
-25.1347
-62.7146
-91.133
-102.31
-95.2003
-76.5689
-60.0147
-46.9619
-34.7255
-23.7691
-15.3497
-8.68037
-3.65168
37.0025
36.1111
33.8617
29.9979
23.6628
13.5153
-2.4838
-25.5698
-56.1293
-80.3103
-90.4998
-86.4874
-72.5624
-58.3666
-46.2007
-34.9309
-24.4756
-16.1373
-9.05999
-3.87766
35.035
34.0584
31.5187
27.2053
20.4442
10.1745
-5.02176
-25.6555
-51.0976
-71.7543
-81.1778
-79.2007
-68.6177
-56.4374
-45.2216
-34.8189
-24.8719
-16.6994
-9.34266
-4.04598
33.2593
32.2065
29.4394
24.791
17.7541
7.50809
-6.89
-25.5108
-47.1504
-64.9879
-73.7489
-73.1361
-65.1308
-54.7047
-44.3862
-34.6946
-25.1809
-17.1645
-9.59399
-4.18967
31.6971
30.5817
27.6394
22.7484
15.5464
5.41266
-8.24358
-25.2317
-44.0156
-59.6887
-67.8091
-68.1885
-62.1199
-53.1204
-43.5789
-34.4504
-25.3089
-17.4576
-9.75037
-4.27794
30.3672
29.203
26.1293
21.0675
13.7853
3.80373
-9.22065
-24.9277
-41.5592
-55.6517
-63.2187
-64.1905
-59.5903
-51.7444
-42.8748
-34.208
-25.382
-17.6873
-9.89005
-4.36143
29.285
28.0843
24.9152
19.7361
12.4153
2.58595
-9.91815
-24.6737
-39.7053
-52.547
-59.6638
-61.0828
-57.6201
-50.6465
-42.3053
-33.9901
-25.4038
-17.8343
-9.97676
-4.40872
28.4621
27.2359
24.0009
18.744
11.3985
1.68943
-10.4145
-24.4257
-38.4575
-50.221
-57.0413
-58.909
-56.1594
-49.8095
-41.8604
-33.8059
-25.3995
-17.9333
-10.0428
-4.45023
27.9079
26.6652
23.389
18.0852
10.7287
1.10446
-10.7209
-24.2603
-37.5988
-48.8171
-55.5512
-57.3026
-55.1317
-49.2177
-41.5381
-33.67
-25.3843
-17.9885
-10.0796
-4.47106
27.6291
26.3779
23.0817
17.7555
10.3931
0.806608
-10.8846
-24.2208
-37.1631
-48.1564
-54.7879
-56.42
-54.6696
-48.9571
-41.3943
-33.6017
-25.3835
-18.0197
-10.1011
-4.48556
64.2004
52.8348
59.278
61.1023
68.3522
82.9678
57.0215
52.9103
56.6337
59.7212
66.1797
78.1092
95.0095
119.251
-58.8011
-26.6158
-10.8221
-3.45588
-0.784132
0.796414
53.2119
51.8651
53.9999
57.2915
61.8862
68.694
70.2719
61.3295
-86.8529
-56.9248
-24.8579
-10.4897
-3.55889
-1.94785
0.957778
50.9796
49.9764
51.2296
53.3318
55.4688
56.6409
48.9912
25.5556
-120.211
-189.171
-100.785
-72.0758
-49.2212
-26.1525
-12.9089
-7.07964
-5.22241
-0.38615
48.6
47.8193
48.2564
49.0214
48.8515
45.8138
32.1703
-11.4354
-100.304
-166.809
-206.772
-160.176
-92.8201
-69.6515
-49.585
-29.6322
-16.364
-9.21433
-5.9856
-1.59699
46.191
45.4893
45.2042
44.713
42.6265
36.5368
20.6068
-19.8166
-98.689
-144.993
-159.657
-131.991
-88.2627
-66.3467
-49.0838
-31.828
-19.0689
-11.2673
-6.85062
-2.35681
43.7795
43.0743
42.1671
40.5747
36.9305
28.9723
11.8663
-22.3933
-82.3842
-122.05
-135.536
-116.686
-84.4195
-64.23
-48.7998
-33.4786
-21.1802
-12.9011
-7.55839
-2.91061
41.413
40.6664
39.2276
36.7064
31.8719
22.7632
5.6008
-24.0753
-71.231
-104.878
-116.893
-105.687
-81.0423
-62.3332
-48.0457
-34.2696
-22.6031
-14.197
-8.13944
-3.31308
39.1394
38.3286
36.4442
33.1703
27.458
17.6626
0.949954
-25.1457
-62.7239
-91.1427
-102.281
-95.3059
-76.5807
-60.1114
-47.0518
-34.6838
-23.6566
-15.2598
-8.6383
-3.6277
37.0037
36.1115
33.8633
29.9996
23.6628
13.518
-2.4859
-25.5768
-56.1345
-80.3218
-90.4787
-86.5645
-72.5829
-58.4353
-46.2566
-34.9107
-24.4062
-16.0779
-9.03198
-3.8608
35.0358
34.0588
31.5203
27.2068
20.4444
10.1754
-5.02333
-25.6594
-51.1011
-71.763
-81.1712
-79.2532
-68.6341
-56.4698
-45.2467
-34.8041
-24.8281
-16.6608
-9.32356
-4.03383
33.2597
32.2068
29.4406
24.7921
17.7542
7.50891
-6.89099
-25.5139
-47.1537
-64.9954
-73.7471
-73.1723
-65.1385
-54.7267
-44.4053
-34.6908
-25.155
-17.1393
-9.58095
-4.18084
31.6973
30.5819
27.6403
22.7492
15.5464
5.41283
-8.24472
-25.2341
-44.0174
-59.6927
-67.809
-68.212
-62.1256
-53.1344
-43.589
-34.4484
-25.2933
-17.4413
-9.74136
-4.27175
30.3674
29.2031
26.1298
21.068
13.7851
3.80379
-9.22113
-24.9291
-41.5608
-55.6544
-63.22
-64.2047
-59.5952
-51.7517
-42.8788
-34.206
-25.3722
-17.6767
-9.88366
-4.35692
29.2851
28.0844
24.9156
19.7363
12.4153
2.58578
-9.91852
-24.6747
-39.7062
-52.5492
-59.665
-61.0908
-57.6248
-50.6447
-42.305
-33.9883
-25.3978
-17.8275
-9.9723
-4.40551
28.4622
27.2359
24.0011
18.7441
11.3983
1.6889
-10.4151
-24.4267
-38.4583
-50.2226
-57.0425
-58.9141
-56.1633
-49.8044
-41.861
-33.8053
-25.3955
-17.9286
-10.0396
-4.44768
27.9079
26.6652
23.3891
18.0852
10.7285
1.10404
-10.7213
-24.2608
-37.5993
-48.818
-55.5524
-57.306
-55.1352
-49.2114
-41.5383
-33.6688
-25.3806
-17.985
-10.0774
-4.46906
27.6291
26.3779
23.0817
17.7555
10.3928
0.806222
-10.8851
-24.2216
-37.1637
-48.1574
-54.789
-56.4228
-54.6733
-48.9533
-41.3906
-33.6008
-25.3801
-18.0168
-10.0994
-4.48365
64.2034
52.8365
59.2772
61.0936
68.3594
82.9932
57.0235
52.9112
56.6324
59.7154
66.184
78.122
94.9845
119.008
-64.7821
-24.5268
-8.88407
-1.43837
0.16316
0.612339
53.2129
51.8651
53.9983
57.2882
61.8838
68.6972
70.2302
61.2621
-83.3722
-62.4581
-23.7266
-9.37763
-2.30659
-0.662575
1.04893
50.9805
49.9759
51.2286
53.3296
55.4634
56.6461
48.9495
25.5297
-120.001
-189.213
-99.6429
-72.7695
-51.6553
-25.7369
-12.1166
-6.39277
-4.76134
-0.313867
48.6012
47.819
48.2561
49.0203
48.8457
45.8191
32.1366
-11.4403
-100.232
-166.774
-206.719
-160.161
-92.5769
-70.0582
-50.8359
-29.4416
-15.8876
-8.76842
-5.66975
-1.52418
46.1919
45.4889
45.2042
44.7126
42.6218
36.5411
20.582
-19.8209
-98.6594
-144.937
-159.646
-131.951
-88.2776
-66.5957
-49.7084
-31.7644
-18.7025
-10.9742
-6.66874
-2.2995
43.7804
43.074
42.1672
40.5747
36.9271
28.9759
11.8516
-22.3951
-82.374
-122.016
-135.509
-116.701
-84.4911
-64.3745
-49.1138
-33.4643
-20.9519
-12.7155
-7.45377
-2.86711
41.414
40.6661
39.2279
36.7065
31.8699
22.7657
5.59212
-24.0789
-71.2185
-104.871
-116.866
-105.715
-81.1096
-62.4421
-48.2155
-34.2687
-22.455
-14.0655
-8.07499
-3.28358
39.1401
38.3283
36.4446
33.1705
27.4565
17.6635
0.945529
-25.149
-62.7181
-91.144
-102.24
-95.3566
-76.6216
-60.183
-47.1423
-34.679
-23.5627
-15.1742
-8.59913
-3.60732
37.0042
36.1114
33.8637
29.9996
23.6615
13.5186
-2.48808
-25.5797
-56.1318
-80.3272
-90.4446
-86.6009
-72.6086
-58.4816
-46.3082
-34.9105
-24.3491
-16.021
-9.00688
-3.84706
35.0363
34.0588
31.5206
27.2067
20.4433
10.1756
-5.02465
-25.6616
-51.1008
-71.7668
-81.1483
-79.285
-68.6494
-56.4928
-45.2728
-34.7997
-24.7897
-16.6233
-9.3067
-4.02423
33.26
32.2068
29.4408
24.792
17.7533
7.509
-6.89154
-25.5153
-47.1538
-64.999
-73.7307
-73.1976
-65.1448
-54.7423
-44.4223
-34.6906
-25.1322
-17.1152
-9.56982
-4.17409
31.6976
30.5819
27.6405
22.749
15.5457
5.4127
-8.24519
-25.2351
-44.0173
-59.6943
-67.798
-68.2287
-62.1303
-53.1456
-43.5973
-34.446
-25.2779
-17.4253
-9.73362
-4.26698
30.3676
29.2031
26.13
21.0678
13.7846
3.80373
-9.22118
-24.9295
-41.561
-55.6555
-63.2137
-64.2156
-59.5999
-51.7591
-42.8848
-34.2054
-25.3629
-17.6664
-9.87806
-4.3535
29.2851
28.0843
24.9157
19.7362
12.415
2.58581
-9.91836
-24.6748
-39.706
-52.55
-59.6614
-61.0968
-57.6289
-50.6485
-42.3094
-33.9876
-25.3916
-17.8207
-9.96829
-4.403
28.4622
27.2359
24.0012
18.744
11.3981
1.68877
-10.4151
-24.4268
-38.4583
-50.223
-57.0412
-58.9176
-56.1667
-49.8053
-41.8645
-33.8049
-25.3915
-17.924
-10.0367
-4.44562
27.9079
26.6652
23.3892
18.0851
10.7283
1.10391
-10.7213
-24.2609
-37.5992
-48.8181
-55.5517
-57.308
-55.1382
-49.2101
-41.5409
-33.6677
-25.3772
-17.9815
-10.0752
-4.46738
27.6291
26.3779
23.0818
17.7554
10.3927
0.806072
-10.8853
-24.2219
-37.1638
-48.1579
-54.7887
-56.4245
-54.6765
-48.9516
-41.3908
-33.6002
-25.3774
-18.014
-10.0975
-4.48203
64.205
52.8372
59.2754
61.0885
68.3616
83.0016
57.0245
52.9115
56.6312
59.7118
66.1853
78.128
94.9548
118.91
-70.0735
-22.311
-7.9085
0.409243
1.62547
0.966734
53.2139
51.865
53.9977
57.2871
61.8825
68.7021
70.2089
61.2134
-75.5011
-69.1433
-23.2169
-8.92619
-1.64377
0.521504
1.02601
50.9812
49.9759
51.2286
53.3297
55.4617
56.6541
48.9356
25.5192
-119.877
-189.173
-98.6644
-71.8263
-54.2614
-25.7236
-11.6488
-5.8039
-4.2316
-0.322545
48.6019
47.8193
48.2566
49.0213
48.8442
45.8271
32.1269
-11.4363
-100.181
-166.739
-206.673
-160.114
-92.2776
-69.949
-52.0548
-29.4924
-15.5996
-8.40318
-5.29238
-1.45468
46.1926
45.4891
45.2049
44.7139
42.6205
36.5477
20.5743
-19.8153
-98.6355
-144.893
-159.621
-131.877
-88.1848
-66.5785
-50.2697
-31.8784
-18.4708
-10.7178
-6.46168
-2.25484
43.781
43.0741
42.168
40.576
36.9262
28.9806
11.8469
-22.39
-82.3666
-121.985
-135.498
-116.671
-84.477
-64.3887
-49.3963
-33.5465
-20.8
-12.5573
-7.33398
-2.82479
41.4145
40.6662
39.2287
36.7076
31.8693
22.7686
5.58934
-24.0768
-71.2123
-104.858
-116.855
-105.703
-81.1186
-62.4676
-48.3577
-34.3154
-22.3523
-13.9514
-8.00362
-3.25418
39.1407
38.3285
36.4452
33.1712
27.456
17.665
0.943915
-25.1494
-62.7131
-91.1455
-102.215
-95.3666
-76.6416
-60.2019
-47.2137
-34.7047
-23.4958
-15.0993
-8.55968
-3.58774
37.0047
36.1115
33.8641
30
23.661
13.5196
-2.48879
-25.5809
-56.1298
-80.3296
-90.4251
-86.6111
-72.6232
-58.4977
-46.348
-34.9258
-24.3088
-15.971
-8.98195
-3.8338
35.0366
34.0588
31.5209
27.2069
20.4427
10.1763
-5.02503
-25.6629
-51.1008
-71.7693
-81.1278
-79.2989
-68.6597
-56.5022
-45.2928
-34.8058
-24.7614
-16.5896
-9.29093
-4.01527
33.2602
32.2068
29.441
24.7921
17.7528
7.5095
-6.89163
-25.5161
-47.1541
-65.0022
-73.7125
-73.2117
-65.1495
-54.7482
-44.4341
-34.6943
-25.1155
-17.094
-9.56002
-4.168
31.6977
30.5819
27.6406
22.749
15.5454
5.41289
-8.24538
-25.2358
-44.0173
-59.6965
-67.7842
-68.2396
-62.134
-53.149
-43.6027
-34.4459
-25.2653
-17.4109
-9.72698
-4.26264
30.3677
29.2031
26.1301
21.0677
13.7844
3.80382
-9.22122
-24.9298
-41.561
-55.6572
-63.2041
-64.224
-59.6031
-51.7604
-42.8884
-34.2058
-25.3553
-17.6575
-9.87369
-4.35042
29.2852
28.0843
24.9157
19.7361
12.4149
2.58589
-9.91831
-24.675
-39.7056
-52.5509
-59.6553
-61.1013
-57.6313
-50.65
-42.3117
-33.9867
-25.3858
-17.8144
-9.96513
-4.4007
28.4622
27.2359
24.0012
18.744
11.398
1.68872
-10.4151
-24.427
-38.4582
-50.2231
-57.0385
-58.92
-56.1687
-49.8063
-41.8667
-33.8042
-25.3877
-17.9199
-10.0345
-4.44387
27.9079
26.6652
23.3892
18.0851
10.7282
1.10383
-10.7213
-24.261
-37.599
-48.8181
-55.5501
-57.309
-55.1398
-49.2105
-41.5433
-33.6671
-25.3742
-17.9784
-10.0734
-4.46595
27.6291
26.3779
23.0818
17.7554
10.3926
0.805962
-10.8853
-24.2221
-37.1635
-48.158
-54.7875
-56.4252
-54.6783
-48.9511
-41.3931
-33.6
-25.3752
-18.0116
-10.0959
-4.48064
64.2059
52.8374
59.274
61.0854
68.3618
83.0046
57.0252
52.9113
56.6299
59.7093
66.1852
78.1286
94.9345
118.907
-73.3037
-21.9309
-7.86561
2.24912
3.52464
1.83228
53.2145
51.8648
53.9967
57.2862
61.8808
68.7033
70.1971
61.1918
-69.2095
-74.6859
-24.3257
-8.57872
-1.45145
1.09453
0.872508
50.9817
49.9758
51.2281
53.3294
55.4602
56.6578
48.9274
25.5114
-119.824
-189.101
-98.3348
-70.2662
-56.2655
-26.2109
-11.3953
-5.37011
-3.71169
-0.44729
48.6023
47.8193
48.2566
49.0216
48.8428
45.8314
32.1214
-11.4352
-100.149
-166.694
-206.613
-160.039
-91.9881
-69.5292
-52.9233
-29.7839
-15.4598
-8.15722
-4.95575
-1.43371
46.193
45.4891
45.2051
44.7144
42.6194
36.5516
20.5703
-19.8118
-98.6151
-144.85
-159.562
-131.766
-88.0349
-66.3882
-50.671
-32.1304
-18.3884
-10.5191
-6.25685
-2.23396
43.7814
43.0743
42.1683
40.5766
36.9254
28.9837
11.8444
-22.3863
-82.3582
-121.951
-135.466
-116.583
-84.4051
-64.3169
-49.6128
-33.6995
-20.7314
-12.4343
-7.21604
-2.79348
41.4149
40.6663
39.229
36.7082
31.8687
22.7708
5.58816
-24.0739
-71.2069
-104.84
-116.833
-105.643
-81.0817
-62.435
-48.4674
-34.4045
-22.3
-13.8652
-7.93311
-3.23005
39.1409
38.3285
36.4455
33.1717
27.4555
17.6663
0.943316
-25.1488
-62.7073
-91.1382
-102.194
-95.3331
-76.6299
-60.188
-47.2689
-34.7565
-23.4616
-15.0414
-8.52125
-3.57104
37.0048
36.1115
33.8644
30.0004
23.6606
13.5205
-2.48899
-25.5808
-56.1269
-80.323
-90.4118
-86.5903
-72.6165
-58.4919
-46.3789
-34.9555
-24.2865
-15.933
-8.95823
-3.82128
35.0367
34.0588
31.5211
27.2071
20.4425
10.1768
-5.02511
-25.663
-51.1001
-71.7665
-81.1143
-79.2905
-68.6581
-56.4993
-45.3082
-34.821
-24.7456
-16.5634
-9.27632
-4.00707
33.2603
32.2068
29.4411
24.7922
17.7526
7.5099
-6.89157
-25.5158
-47.1541
-65.0025
-73.6989
-73.2102
-65.1493
-54.7456
-44.4426
-34.7032
-25.1061
-17.078
-9.55119
-4.16227
31.6977
30.5819
27.6407
22.7491
15.5452
5.41311
-8.24534
-25.2357
-44.0171
-59.6977
-67.7719
-68.2403
-62.1344
-53.1469
-43.6072
-34.4497
-25.2579
-17.3995
-9.72086
-4.25851
30.3677
29.203
26.1301
21.0678
13.7843
3.80394
-9.22118
-24.9297
-41.5606
-55.6588
-63.1933
-64.2263
-59.6035
-51.7585
-42.8907
-34.2078
-25.3509
-17.6506
-9.87021
-4.34754
29.2852
28.0843
24.9157
19.7361
12.4149
2.58595
-9.91824
-24.675
-39.705
-52.5518
-59.6481
-61.1025
-57.6313
-50.6488
-42.3129
-33.987
-25.3822
-17.8095
-9.96254
-4.3985
28.4621
27.2358
24.0012
18.744
11.3979
1.6887
-10.4151
-24.4271
-38.458
-50.2229
-57.0349
-58.9203
-56.1688
-49.8055
-41.8676
-33.8043
-25.3852
-17.9169
-10.0329
-4.44226
27.9078
26.6651
23.3892
18.085
10.7281
1.10378
-10.7213
-24.2609
-37.5986
-48.8179
-55.5475
-57.3085
-55.1399
-49.2098
-41.5445
-33.6671
-25.3722
-17.976
-10.072
-4.46462
27.629
26.3778
23.0818
17.7554
10.3925
0.805898
-10.8853
-24.2221
-37.163
-48.1578
-54.7855
-56.4249
-54.6785
-48.9505
-41.3941
-33.5999
-25.3738
-18.0098
-10.0948
-4.47947
64.2062
52.8372
59.2727
61.0831
68.3608
83.0038
57.0254
52.9108
56.6285
59.7074
66.1837
78.127
94.9232
118.921
-73.7015
-24.4544
-8.44975
4.10588
5.48156
2.59733
53.2145
51.8643
53.9953
57.2847
61.8786
68.7016
70.1896
61.19
-67.3804
-75.9947
-26.8478
-8.82957
-0.982131
1.05723
0.50144
50.9817
49.9754
51.2271
53.3284
55.4581
56.6578
48.9214
25.5089
-119.799
-189.043
-98.217
-68.961
-57.0999
-27.2341
-11.4667
-4.95547
-3.41309
-0.670213
48.6024
47.819
48.2559
49.021
48.841
45.8322
32.1169
-11.4333
-100.125
-166.645
-206.53
-159.923
-91.6644
-69.0141
-53.2943
-30.3332
-15.5006
-8.03307
-4.77086
-1.47557
46.1931
45.4889
45.2046
44.7141
42.6178
36.5526
20.567
-19.8092
-98.5947
-144.809
-159.481
-131.623
-87.822
-66.1269
-50.8811
-32.4795
-18.4445
-10.3987
-6.10853
-2.24739
43.7815
43.0741
42.168
40.5765
36.9241
28.9846
11.8422
-22.3836
-82.3455
-121.917
-135.419
-116.46
-84.284
-64.1892
-49.7463
-33.9034
-20.7373
-12.3613
-7.13079
-2.79138
41.4149
40.6662
39.2288
36.7081
31.8678
22.7715
5.58706
-24.0712
-71.1985
-104.815
-116.801
-105.554
-81.0103
-62.3664
-48.5356
-34.5241
-22.3014
-13.8152
-7.87959
-3.2186
39.1409
38.3284
36.4454
33.1717
27.4549
17.6668
0.942886
-25.1475
-62.6998
-91.122
-102.174
-95.2701
-76.5892
-60.1518
-47.3072
-34.8262
-23.4606
-15.0072
-8.49032
-3.56074
37.0048
36.1114
33.8644
30.0005
23.6601
13.5208
-2.48911
-25.5798
-56.1224
-80.3106
-90.3985
-86.5481
-72.5895
-58.4695
-46.3998
-34.9963
-24.2838
-15.9104
-8.94051
-3.81257
35.0366
34.0588
31.5211
27.2072
20.4422
10.1771
-5.02509
-25.6623
-51.0975
-71.7586
-81.1021
-79.2634
-68.6429
-56.4863
-45.3187
-34.8433
-24.7428
-16.5477
-9.26508
-4.00093
33.2603
32.2067
29.4411
24.7922
17.7524
7.51008
-6.89141
-25.515
-47.1528
-64.9977
-73.6885
-73.1932
-65.1407
-54.7366
-44.448
-34.7162
-25.1044
-17.0687
-9.54492
-4.15796
31.6977
30.5818
27.6407
22.7491
15.5451
5.41324
-8.24518
-25.2348
-44.0165
-59.6956
-67.7632
-68.2297
-62.1291
-53.1408
-43.6101
-34.4565
-25.2559
-17.3929
-9.71621
-4.25523
30.3676
29.203
26.1301
21.0678
13.7842
3.80401
-9.22105
-24.929
-41.5598
-55.659
-63.1851
-64.2208
-59.5998
-51.7546
-42.8922
-34.2116
-25.3498
-17.6468
-9.86775
-4.34538
29.2851
28.0842
24.9157
19.7361
12.4148
2.586
-9.91807
-24.6747
-39.7041
-52.5518
-59.6419
-61.0991
-57.6287
-50.6459
-42.3135
-33.9888
-25.3809
-17.8066
-9.9606
-4.39674
28.4621
27.2358
24.0012
18.7439
11.3979
1.68871
-10.4151
-24.4267
-38.4576
-50.2223
-57.0309
-58.9179
-56.167
-49.8033
-41.8679
-33.8052
-25.3843
-17.9151
-10.0319
-4.44097
27.9078
26.6651
23.3891
18.085
10.7281
1.10377
-10.7212
-24.2607
-37.5979
-48.8174
-55.5444
-57.3064
-55.1385
-49.208
-41.5447
-33.6675
-25.3714
-17.9745
-10.071
-4.46352
27.629
26.3778
23.0817
17.7553
10.3925
0.805881
-10.8852
-24.222
-37.1624
-48.1572
-54.783
-56.4238
-54.677
-48.949
-41.3942
-33.6001
-25.3732
-18.0087
-10.094
-4.47858
64.2061
52.8366
59.2713
61.081
68.3588
83.0009
57.0252
52.9101
56.6271
59.7054
66.1815
78.1239
94.9174
118.933
-71.5353
-28.7293
-9.37161
5.66564
7.63856
3.21854
53.2143
51.8637
53.9939
57.283
61.8761
68.699
70.1855
61.1935
-67.6436
-73.3506
-29.8767
-9.66901
-0.55131
1.18659
0.0270394
50.9815
49.9747
51.2259
53.327
55.4558
56.6561
48.9182
25.5107
-119.782
-188.997
-98.0137
-67.9942
-56.8372
-28.5483
-11.8436
-4.66509
-3.3483
-0.916411
48.6021
47.8185
48.255
49.02
48.8389
45.8311
32.1146
-11.4298
-100.105
-166.601
-206.429
-159.767
-91.2849
-68.4881
-53.2478
-31.0346
-15.7229
-7.92647
-4.75511
-1.574
46.1928
45.4885
45.2039
44.7133
42.6161
36.552
20.5652
-19.8059
-98.5746
-144.773
-159.389
-131.456
-87.5478
-65.838
-50.915
-32.8781
-18.6059
-10.338
-6.04516
-2.28728
43.7812
43.0737
42.1675
40.576
36.9229
28.9843
11.8413
-22.381
-82.3302
-121.888
-135.362
-116.314
-84.1155
-64.0245
-49.7858
-34.1347