/*--------------------------------*- C++ -*----------------------------------*\
  =========                 |
  \\      /  F ield         | OpenFOAM: The Open Source CFD Toolbox
   \\    /   O peration     | Website:  https://openfoam.org
    \\  /    A nd           | Version:  10
     \\/     M anipulation  |
\*---------------------------------------------------------------------------*/
FoamFile
{
    format      ascii;
    class       surfaceScalarField;
    location    "2000";
    object      phi;
}
// * * * * * * * * * * * * * * * * * * * * * * * * * * * * * * * * * * * * * //

dimensions      [0 3 -1 0 0 0 0];

internalField   nonuniform List<scalar> 
164653
(
-3.23954
37.182
38.8927
3.15795
0.156901
-36.6205
36.4651
37.2741
0.219925
0.00451393
-0.0672168
-0.20132
-0.0802314
-36.3546
36.0075
37.5827
0.806435
0.0593063
-0.209131
-0.159522
-0.862492
-9.47176
9.58522
9.87362
0.794153
-0.179685
-8.4791
8.21134
8.86285
0.413324
-6.1727
6.7484
0.234975
7.80426
-0.0813883
-19.807
151.979
19.674
159.821
4.24645
-151.444
150.635
-3.42886
158.047
-2.63439
-149.471
149.044
3.26041
157.04
-3.66311
-149.555
148.172
16.0511
158.174
-3.7439
-3.34625
-3.80527
-4.43598
-146.816
144.645
21.8754
157.914
-5.02139
-4.96865
-5.65763
-6.25999
-141.114
135.519
33.9421
154.935
-7.47551
-6.38747
-7.93441
-21.8733
82.3273
149.443
-13.6735
-22.7459
-14.589
-122.347
30.3687
30.4515
31.1548
31.1787
-6.546
-26.4798
28.0195
38.7999
-9.47108
-7.38456
-10.3936
6.51367
9.0642
9.1742
6.74633
-0.832541
1.13755
1.93098
-0.104001
0.146777
-0.813116
26.2832
0.754919
1.56415
0.741485
-1.47302
0.294191
-0.313582
-0.303551
0.13864
0.229124
-0.885036
5.94306
34.1779
-2.50114
0.18949
0.229763
0.204
-0.859273
-1.09188
-1.11904
0.577315
-11.1546
13.3355
35.4555
-3.70167
0.681373
0.229059
0.265093
0.714401
-18.479
20.0221
37.3109
-4.19822
0.658405
0.688423
0.570066
4.26031
-24.4105
25.4543
37.3878
-5.30901
623.137
13.258
656.454
-19.6011
2.31014
-4.85885
13.3701
617.116
-8.96017
651.238
2.8302
1.91142
7.31886
4.65368
617.712
29.3359
648.332
-4.04542
-12.9378
-1.67265
-8.58649
611.165
64.5991
651.664
-16.8501
-19.3564
-8.26358
-12.9513
598.829
93.2926
653.216
-23.9827
-27.8695
-16.0335
-15.2788
564.276
230.671
642.429
-38.5641
-68.8257
-35.2554
-68.4246
138.33
332.342
648.928
137.544
138.64
142.143
-89.7058
-83.9312
-74.3674
-104.412
-33.0973
141.135
160.03
37.3023
35.1686
34.1291
36.8798
-39.3274
-34.898
-42.1037
-0.532977
0.278658
1.0079
0.212927
0.604404
-52.8982
74.2373
-27.0983
87.0301
0.887984
1.13457
1.86349
4.64756
-90.3503
107.14
-30.4163
100.723
4.11627
4.84668
4.19416
29.3074
-123.286
135.907
-36.0138
124.728
22.8708
-136.018
149.082
-26.8586
133.782
30.6603
-154.994
158.54
-32.3889
152.467
22.8714
-159.941
161.336
-23.4344
154.958
632.203
13.0038
664.863
629.408
-4.762
665.296
627.538
32.6155
663.716
624.198
68.3873
664.991
623.072
101.101
663.841
616.263
244.043
664.588
160.234
291.597
674.627
171.777
153.489
168.955
-114.192
162.147
107.881
160.693
-50.2525
-45.3204
50.1204
38.1922
45.6378
-16.3738
12.6401
3.45402
9.71204
0.195982
2.67496
-10.1265
42.9196
-12.5505
36.1046
2.71824
2.77048
2.75933
-10.2855
-10.7955
-10.8579
6.45675
-43.3486
175.174
-14.4839
158.337
0.0781136
7.00676
-0.389705
-44.2241
-44.6866
-45.6075
721.195
-210.167
625.303
38.318
34.4976
49.0085
41.4116
-158.693
-184.421
-158.177
-184.466
709.017
-157.843
634.149
35.5104
36.6215
41.5038
42.6784
710.841
-99.8065
613.387
36.5452
17.7184
39.3864
14.8914
692.282
-125.818
642.8
16.5581
34.685
34.9407
52.7382
688.454
-80.6811
625.185
31.8312
24.1251
37.6467
10.6581
-69.8269
649.275
22.5298
25.8746
17.6403
13.411
641.646
12.4846
674.843
640.305
-1.85069
675.783
639.747
34.7212
674.498
638.798
70.0374
675.436
637.582
102.346
674.265
646.587
235.455
675.825
681.706
255.131
665.519
189.282
423.282
668.968
-112.226
-153.67
-115.458
-136.339
188.908
196.568
195.921
-144.097
203.155
132.201
162.824
-16.7809
216.854
61.0021
158.454
-15.5923
-17.235
-15.3662
-212.946
-9.86217
-56.3894
57.5243
40.4262
8.68549
8.25119
-216.139
204.962
-15.1389
164.187
10.9792
-2.25851
5.23018
43.0588
-199.849
194.406
-37.8922
162.444
754.235
-141.576
665.741
18.9603
33.4897
30.6067
34.1004
-180.402
-186.631
-192.375
-188.225
745.769
-206.781
665.376
725.029
-135.792
651.009
697.453
-89.4138
646.195
707.459
-152.736
654.332
703.859
-74.3686
657.77
-66.3607
664.257
649.698
11.8584
683.345
649.381
0.209902
684.442
650.159
35.6105
683.365
651.529
69.5218
684.167
654.496
99.7013
682.979
669.57
220.872
684.701
703.674
220.382
676.187
799.178
326.161
675.822
836.56
266.962
676.738
-117.997
-69.8585
-82.2598
-39.7109
217.134
166.503
654.551
-56.6588
-47.8041
-42.413
-40.8941
214.942
217.836
215.229
-19.6434
218.618
16.4438
167.474
808.774
-79.2973
687.489
8.8675
36.7041
6.42418
51.0833
-214.604
-212.964
-214.925
-212.784
809.323
-80.8559
678.298
32.8293
13.6487
14.2108
16.3624
768.932
-88.4091
677.469
749.833
-193.529
677.989
736.773
-125.95
668.213
729.028
-81.8254
665.546
718.071
-141.46
670.936
713.738
-68.3254
672.358
-61.596
677.265
656.69
11.1639
690.72
657.14
1.60542
691.828
659.136
35.3517
690.887
671.872
67.6188
691.666
668.175
114.17
690.162
702.787
202.103
692.629
720.61
225.978
685.687
774.258
272.839
687.427
820.403
221.77
681.664
850.329
137.574
674.73
841.974
23.5991
671.799
-13.6434
4.84138
-5.19849
4.81968
814.698
-47.8542
674.086
796.803
-61.6485
679.642
800.82
-125.851
715.029
756.315
-171.879
707.287
743.162
-114.73
679.967
735.417
-74.2957
678.422
723.847
-130.207
682.522
719.087
-62.5307
683.384
-57.6316
687.499
662.87
10.4208
697.202
663.897
2.54426
698.253
666.925
34.1564
697.41
670.439
63.8798
698.191
685.872
105.704
696.356
721.979
144.12
719.633
725.236
196.097
723.347
772.067
225.593
694.162
811.083
184.291
691.361
833.38
116.315
686.104
830.071
25.6043
688.96
814.302
-30.9062
686.722
797.874
-46.9137
688.879
789.7
-111.846
700.752
760.16
-122.092
685.509
747.618
-102.676
688.921
740.16
-66.4681
688.76
728.303
-118.7
692.512
723.221
-56.8528
693.171
-52.9755
696.624
679.811
10.2395
703.004
681.734
27.4051
703.944
682.491
56.8767
703.224
678.325
77.2709
703.963
687.186
95.924
702.159
707.353
128.376
692.313
739.802
168.073
707.145
779.344
204.601
700.98
803.142
173.476
699.271
822.838
97.5363
695.326
822.196
26.0915
698.057
800.819
2.05611
685.589
796.949
-36.2123
688.931
774.902
-96.4758
707.208
770.171
-107.68
693.443
750.814
-76.9293
697.049
743.762
-59.0204
697.208
731.699
-107.122
700.368
736.651
-51.5881
700.838
-28.3046
703.822
671.982
9.29835
708.252
674.057
25.0499
709.094
678.599
51.7351
708.475
685.158
69.8255
709.202
694.712
85.5338
707.537
715.422
111.648
699.14
732.304
144
713.205
764.705
170.724
707.644
796.771
145.082
706.011
813.933
81.4069
702.663
815.278
24.9326
705.402
809.637
8.2222
702.937
796.314
-28.1632
707.331
776.012
-82.181
712.455
764.325
-93.1576
699.985
753.572
-66.8354
703.642
746.825
-51.5655
704.395
734.593
-95.3368
707.438
728.22
-45.8307
707.821
-25.37
710.416
676.575
8.28753
713.033
678.929
22.4151
713.792
683.994
46.0676
713.308
691.118
61.8099
714.046
701.047
74.7976
712.623
712.107
115.086
697.929
736.703
129.669
705.686
770.766
130.24
719.204
799.862
119.27
717.435
811.929
83.0919
708.897
809.458
32.6504
711.536
807.234
11.421
709.592
795.237
-20.1303
713.489
777.31
-69.5881
717.393
765.859
-79.3882
706.768
764.058
-57.6792
709.596
749.426
-29.1972
710.734
737.127
-83.4843
713.44
730.399
-40.1136
713.735
-22.3452
716.01
680.826
7.21391
717.449
683.4
19.5679
718.134
688.841
40.0427
717.776
696.359
53.3996
718.53
706.378
63.97
717.268
720.797
97.1331
716.395
739.899
108.496
718.517
764.657
106.275
717.83
785.679
97.5932
715.85
800.18
68.5036
714.321
806.924
28.1922
716.765
806.834
16.4192
715.423
794.212
-9.19934
719.027
763.544
-26.7713
704.754
767.153
-67.5559
699.881
757.497
-48.4385
714.616
751.795
-24.3984
716.332
739.447
-71.5569
718.794
732.37
-34.3377
719.041
-19.2197
721.076
684.753
6.08809
721.569
687.509
16.5178
722.178
693.243
33.7216
721.958
701.01
44.7234
722.691
710.858
53.261
721.193
724.95
79.7844
721.194
742.773
88.3493
722.84
764.323
85.1126
722.489
780.77
78.2471
720.141
796.162
50.569
719.435
800.67
23.7703
721.519
801.422
15.3211
720.765
793.421
-5.57798
724.153
784.121
-20.6333
724.336
767.446
-52.4559
723.383
759.149
-40.0153
717.396
753.86
-19.8737
721.292
741.527
-59.6055
723.685
734.213
-28.5817
723.88
-16.0612
725.722
688.447
4.91301
725.433
691.314
13.3601
725.963
697.275
27.1893
725.873
705.15
35.9278
726.509
707.104
51.0523
720.693
728.627
56.4614
721.566
745.485
69.1621
727.06
764.55
66.0702
726.645
782.345
60.3709
724.448
793.507
39.4706
724.064
798.164
19.2467
725.778
809.299
-6.23282
735.327
793.04
-2.27944
737.556
784.542
-15.4032
728.963
770.48
-40.5834
729.908
760.922
-31.7758
722.299
755.94
-15.5961
725.809
743.687
-47.6749
728.044
736.099
-22.8198
728.241
-12.8359
729.969
691.898
3.71275
729.08
694.862
10.0988
729.525
700.968
20.5105
729.569
708.935
27.0065
730.17
719.06
38.3155
729.947
732.351
39.2515
731.172
748.129
51.1368
731.161
765.643
48.224
730.516
781.646
44.2201
728.573
792.361
28.7993
728.364
797.704
14.0761
729.678
795.546
-3.69987
728.738
793.18
-0.935107
730.042
785.36
-10.8856
733.223
772.363
-30.1374
734.219
762.855
-23.437
726.967
758.076
-11.487
730.257
745.855
-35.7455
732.167
738.037
-17.0667
732.28
-9.61576
733.925
695.172
2.49717
732.535
698.202
6.76499
732.907
704.419
13.7231
733.1
712.462
18.0349
733.745
726.384
25.4622
733.861
735.809
29.9485
735.072
750.888
33.7774
734.876
766.784
31.6302
734.097
781.886
28.9116
732.429
791.673
19.079
732.264
796.798
9.20021
733.264
795.814
-2.29171
732.65
793.976
-0.284183
734.299
786.621
-6.91827
737.235
770.94
-20.3076
737.471
764.939
-20.8308
731.62
760.384
-7.52812
734.461
748.214
-23.8387
736.05
740.212
-11.3513
736.089
-6.40175
737.683
698.277
1.25071
735.836
701.333
3.39682
736.114
707.621
6.87786
736.44
715.72
9.02311
737.148
726.426
12.7011
737.563
739.109
14.9836
738.494
753.789
16.7743
738.368
768.531
15.7978
737.502
782.964
14.188
736.086
792.625
9.49047
735.958
797.434
4.64355
736.632
796.858
-1.2486
736.338
795.238
-0.00103262
738.284
788.196
-3.34439
740.997
776.843
-11.1488
740.363
767.12
-10.3156
735.934
762.797
-3.74102
738.439
750.69
-11.9406
739.715
742.469
-5.68321
739.738
-3.20227
741.275
701.221
738.971
704.293
739.163
710.621
739.619
718.745
740.371
729.689
741.055
742.378
741.764
756.766
741.639
771.087
740.641
784.917
739.475
794.48
739.365
799.39
739.698
798.648
739.755
797.171
741.998
790.286
744.46
778.216
742.11
769.494
738.42
765.283
741.938
753.182
742.871
744.738
742.851
744.283
-38.7602
-0.752894
37.0706
0.640471
38.6824
-37.8651
1.36783
-36.952
36.8364
-1.19599
37.8088
-38.1818
0.17029
-36.8726
36.7787
-0.11808
38.2236
-35.29
2.79914
-34.3077
32.9131
-1.141
35.0264
-37.3112
-35.5288
32.4519
1.76245
35.582
3.04382
-31.4455
-29.0485
27.5621
0.398809
31.5884
0.944575
-1.70006
-159.655
151.859
1.85995
159.606
0.390219
-158.048
150.447
0.527198
158.009
-151.326
-4.637
-156.531
-149.224
148.18
6.06449
156.148
-8.5001
-157.567
-147.658
148.302
8.47969
156.944
-9.64715
-160.542
-150.26
147.674
11.4847
161.291
-23.7772
-156.049
-142.165
135.771
30.702
155.519
-152.654
-6.17406
123.646
38.8873
151.684
-7.11533
-7.90513
-9.08567
-131.283
-40.8642
-19.924
-29.272
30.6783
18.7225
40.6593
-8.52678
-4.0016
4.05814
8.20153
0.26871
-22.7165
2.7705
-1.6478
-1.49076
21.3827
1.70182
-29.7195
2.85154
-3.10688
5.22217
-3.7122
28.4649
-36.8587
2.06327
-9.86894
60.0833
-18.7523
135.54
3.05239
2.3769
3.04208
-13.5974
-9.57951
-13.3801
-34.9205
-35.0934
-34.1073
-37.3339
5.13367
-17.6771
20.3292
-7.0658
36.6139
-152.004
13.4492
-101.329
109.677
-51.9862
147.936
12.1546
10.8807
11.2215
618.244
10.3283
653.488
-2.19028
1.58488
-1.98546
-2.58212
613.491
18.7999
651.545
-1.12623
-3.16644
-4.38104
-5.68066
609.163
43.3255
648.231
-7.10003
-9.74382
-9.10454
-12.9484
605.559
57.7194
652.115
-8.94654
-11.7204
-15.8512
-18.0482
591.29
93.3341
653.026
-13.6649
-17.6759
-21.935
-25.5998
572.214
181.813
642.225
-35.7872
-43.7803
-37.3177
-45.6475
157.737
266.378
631.676
154.176
160.303
150.072
-47.1607
-99.7534
-63.6135
-88.671
-164.447
-121.406
111.961
170.739
43.8796
38.4836
38.4591
40.0689
-10.1424
-1.94586
-5.20449
15.5025
1.7902
16.874
-69.1641
-95.8273
81.4836
-45.0438
111.678
15.6476
-100.457
-90.8959
103.26
-29.9932
102.439
27.4289
-120.158
-117.049
127.749
-34.5495
116.578
155.103
-206.256
576.74
27.2391
48.3956
41.163
56.6295
-140.451
-144.436
-147.869
-151.224
-137.413
-160.415
-133.645
-160.027
161.76
155.012
159.695
48.9539
-148.695
156.988
-49.0619
146.918
-168.637
612.208
54.1947
40.7073
39.4227
37.8874
-155.22
-156.973
-157.466
-158.543
-157.918
-164.919
-157.694
-164.834
630.901
10.268
664.781
628.287
21.6646
665.045
626.682
45.8541
662.793
624.058
61.4376
663.897
616.934
100.497
663.803
622.1
184.488
656.746
164.448
248.678
647.653
177.231
159.679
165.416
-158.543
-101.777
169.462
93.498
161.808
-36.7987
-49.8854
-44.0795
51.749
41.0495
37.9651
-33.8149
-52.025
43.2948
6.70027
32.5223
3.32251
-34.253
1.9196
-9.8544
42.4442
-10.4119
34.4553
1.62733
0.820823
-0.170102
-9.96426
-8.45965
-8.15386
697.997
-245.673
666.523
-160.23
-184.28
-160.101
-179.62
55.9591
68.4671
51.6001
50.2151
-168.25
-160.524
-165.856
-166.227
711.828
-224.771
662.215
53.7932
38.3997
44.2947
37.5405
700.022
-147.942
646.856
36.6833
41.4038
34.1808
34.773
711.007
-108.069
618.93
36.5193
6.62388
31.6491
16.7501
696.327
-181.737
632.961
675.975
-156.255
634.528
50.0926
33.804
49.4916
33.8748
-171.38
639.923
640.263
9.92451
674.67
639.131
23.061
675.519
638.768
47.1334
673.582
638.252
63.3119
674.078
637.611
101.639
673.764
651.485
178.556
667.883
687.873
217.196
660.613
196.174
349.941
672.498
-101.411
-111.533
-108.336
-121.569
195.115
193.459
192.503
-111.439
211.119
94.5782
167.377
-165.462
-159.18
-47.8978
-213.888
214.527
46.2465
160.192
-155.433
-2.25869
219.563
5.94443
154.223
2.02693
-4.54314
-1.09062
-218.432
4.82131
-216.999
-158.496
211.082
-0.0202353
154.654
2.22464
4.1163
-1.38376
749.05
-133.567
640.471
30.2153
51.3646
50.8768
84.8209
-203.576
-204.346
-202.961
-203.512
-164.294
-163.404
-165.403
-165.735
734.955
-204.768
638.932
737.212
-217.918
656.267
723.552
-143.078
659.805
716.284
-102.624
648.017
707.858
-170.852
651.873
699.346
-145.846
655.873
-162.217
655.373
648.273
9.46297
683.142
648.159
23.441
684.176
649.082
47.1354
682.44
650.765
63.0912
682.704
654.366
98.8597
682.157
674.02
167.716
675.887
712.18
184.242
670.98
775.017
286.203
676.722
825.164
238.839
674.772
-80.0602
-48.2675
-92.5919
-66.0985
852.566
151.999
658.572
-43.132
-42.5992
-51.7042
-45.9868
844.352
16.9741
661.198
-4.3668
7.63127
-14.1563
3.422
-166.577
-163.927
-168.399
-163.585
821.666
-59.5726
676.77
-5.38212
45.2191
2.10008
51.0405
787.908
-92.2757
670.764
756.701
-186.022
689.93
748.135
-203.433
672.069
734.615
-133.846
672.499
727.139
-95.8177
666.216
717.855
-159.556
668.925
709.044
-135.929
671.252
-152.341
669.153
655.257
8.93683
690.496
655.89
23.1017
691.534
657.997
45.9814
689.934
661.479
61.1738
690.101
668.022
93.4696
689.01
692.638
154.386
681.342
725.637
154.245
682.685
779.786
233.16
686.321
818.495
196.501
685.293
842.97
128.428
673.826
834.464
17.2869
679.992
813.748
-39.0952
674.325
795.925
-72.3204
677.509
797.448
-168.284
695.768
755.252
-132.963
679.012
741.284
-122.065
682.154
733.476
-87.9644
678.377
710.449
-122.315
668.308
714.447
-126.487
669.944
-141.748
679.748
661.43
8.34074
696.978
662.631
22.2053
697.949
665.727
43.8472
696.449
670.634
57.8849
696.572
679.002
86.4104
695.047
728.271
138.904
685.846
731.043
182.555
692.265
776.503
189.627
692.234
809.228
161.189
693.948
831.024
107.901
684.835
827.198
19.8938
690.179
812.882
-24.1608
686.103
798.028
-57.0191
688.432
775.531
-148.007
702.973
759.044
-117.278
686.311
745.633
-109.73
689.997
738.115
-79.5316
687.845
728.978
-111.928
691.262
718.719
-115.856
692.799
-130.494
688.974
666.956
7.69984
702.761
668.616
20.8481
703.642
672.501
40.9251
702.261
678.431
53.6013
702.316
687.857
78.3705
700.774
703.505
123.043
692.526
736.44
156.074
700.693
773.875
154.519
698.654
801.357
131.841
701.137
820.574
90.0792
693.93
819.459
20.5682
698.498
797.873
-11.6945
694.709
797.61
-64.583
696.757
776.329
-128.521
709.003
761.526
-102.488
693.456
748.863
-97.4207
697.403
741.677
-71.1918
696.055
732.284
-101.372
699.205
722.002
-105.056
700.32
-118.729
696.372
671.979
6.99551
707.985
673.993
19.1593
708.769
678.486
37.3934
707.514
685.183
48.5641
707.542
695.197
69.7442
706.149
711.476
106.667
699.237
740.677
133.062
707.015
772.009
125.126
705.705
795.019
107.619
707.223
811.771
74.8787
701.112
812.688
19.7871
705.266
805.699
-2.83409
701.065
797.142
-52.0356
703.341
777.399
-110.637
714.315
763.726
-88.6158
699.785
751.713
-85.2359
703.47
744.78
-62.6812
702.817
735.18
-90.4215
706.087
724.833
-93.9004
707.013
-106.507
703.168
676.555
6.24848
712.743
678.875
17.2014
713.43
683.85
33.4015
712.325
691.066
43.0423
712.352
701.383
60.8302
711.219
709.612
90.0754
706.291
743.892
91.9299
712.538
775.421
99.7261
713.075
789.977
98.9997
711.499
804.81
61.7739
707.169
807.02
18.079
711.034
818.05
-26.3393
722.068
796.157
-39.7844
723.131
778.429
-94.6001
719.084
765.341
-75.1712
706.411
753.963
-73.4123
709.15
747.423
-54.3666
708.959
737.66
-79.3307
712.113
727.354
-82.5609
712.701
-93.9231
708.928
680.782
5.44196
717.16
683.335
15.0352
717.747
688.656
29.0778
716.779
696.25
37.1704
716.809
706.638
51.8817
715.828
726.483
75.1658
711.46
745.769
75.448
715.713
765.478
79.6828
718.163
785.968
80.0842
714.277
799.376
50.2266
712.46
802.35
15.877
715.992
798.304
-20.33
713.46
795.357
-31.3853
713.575
747.007
-47.4602
705.964
766.52
-95.0553
700.252
756.041
-62.0302
713.713
749.871
-46.159
714.295
739.965
-68.0826
717.451
729.704
-71.0346
717.777
-81.0245
714.211
684.707
4.60142
721.263
687.442
12.7146
721.763
693.02
24.5249
720.933
700.864
31.1124
720.905
711.207
43.239
719.493
729.568
61.2791
716.72
747.648
60.5082
719.7
764.704
62.7824
722.333
783.322
63.307
718.301
795.323
40.1055
717.555
798.784
13.4128
720.522
796.596
-15.549
718.172
794.72
-24.4278
719.071
785.049
-38.0079
724.555
762.266
-69.9266
721.037
757.747
-53.6611
713.546
751.994
-38.1507
719.036
742.033
-56.7661
722.329
731.903
-59.3863
722.363
-67.9068
719.046
688.383
3.71464
725.126
691.245
10.2845
725.531
697.024
19.7739
724.845
705.039
24.9855
724.62
711.37
35.9271
721.675
732.488
39.8477
721.878
749.426
46.7704
723.861
764.739
48.0999
726.014
781.642
48.3487
722.503
792.608
31.0667
722.137
796.336
10.8759
724.587
806.22
-12.6807
722.575
794.457
0.865946
724.026
785.706
-29.3774
729.083
770.119
-55.1197
730.688
759.685
-42.9411
722.013
754.136
-30.3232
723.53
744.132
-45.4354
726.718
734.144
-47.608
726.451
-54.5563
723.441
691.834
2.80603
728.764
694.793
7.77145
729.079
700.692
14.912
728.532
708.853
18.7632
728.231
721.84
27.1401
725.747
735.507
29.2595
728.094
751.117
34.2123
728.109
765.658
34.6532
729.421
780.831
35.165
726.584
791.401
22.4816
726.378
795.94
7.74306
728.272
793.86
-8.53066
726.668
794.699
1.38518
728.684
786.643
-21.4163
733.317
772.558
-41.6422
734.827
761.733
-31.6903
726.541
756.328
-22.6075
727.945
746.288
-34.0911
730.863
736.446
-35.7818
730.296
-41.0976
727.603
695.094
1.87348
732.215
698.127
5.20619
732.439
704.102
9.98553
732.051
712.254
12.5096
731.847
725.26
17.5677
730.428
737.993
19.2364
732.362
752.91
22.3907
731.78
766.597
22.5255
732.539
780.962
22.8369
730.392
790.657
14.8378
730.212
795.077
4.95686
731.63
794.172
-5.52983
730.555
795.607
1.25546
732.993
788.087
-13.9644
737.304
774.682
-28.9681
738.201
763.998
-20.3322
730.945
758.709
-14.986
732.128
748.645
-22.7418
734.765
738.975
-23.9047
733.882
-27.4892
731.538
698.191
0.937945
735.512
701.266
2.60214
735.643
707.28
4.99468
735.418
715.38
6.25378
735.303
727.424
8.66881
734.418
740.211
9.54681
735.397
754.802
11.0319
735.136
768.167
11.217
735.444
781.948
11.1414
734.001
791.53
7.36981
733.844
795.847
2.50747
734.765
795.306
-2.88603
734.236
797.005
0.752433
737.088
789.853
-6.89316
741.077
776.97
-17.2797
741.558
766.356
-9.01277
735.228
761.19
-7.48343
736.102
751.095
-11.3839
738.452
741.604
-11.9847
737.309
-13.7833
735.316
701.133
738.647
704.227
738.671
710.246
738.594
718.311
738.561
729.715
738.32
742.44
738.587
756.779
738.331
770.536
738.101
783.792
737.36
793.317
737.21
797.908
737.615
797.182
737.594
799.037
740.896
792.089
744.515
775.264
741.655
768.901
735.77
763.742
739.613
753.586
741.644
744.245
740.207
738.525
-38.6223
-0.639096
36.9636
0.487734
38.6036
-37.7329
-0.125361
-36.8365
36.7351
0.232679
37.727
-38.28
-0.661164
-36.8965
36.8984
0.649513
38.2898
-35.2824
-1.75977
-34.4664
32.9693
3.19338
35.3458
-35.0784
-35.883
32.0896
4.08689
35.0591
-0.2742
-31.8443
-29.1976
28.1555
1.62843
31.8822
-0.624124
-1.51529
151.716
1.75761
159.544
-159.595
-3.17143
-157.933
-151.175
150.297
4.11573
157.867
-6.63116
-155.945
-148.982
147.576
8.12632
155.856
-19.0149
-156.68
-146.561
147.704
17.9799
156.572
-19.4648
-161.4
-150.553
147.952
22.1275
161.339
-25.2268
-155.249
-141.999
134.756
32.6215
155.097
-13.701
-151.321
122.704
66.28
151.384
-15.3435
-14.4635
-16.0154
-129.523
-40.7507
-29.6595
-28.9594
31.6455
26.8667
40.8575
-7.52601
-4.28674
4.64607
7.44846
-0.281777
-17.9297
3.20396
-2.04968
-0.230519
16.84
0.165919
-25.3283
-0.0327371
-2.57209
4.62531
-0.921915
24.2298
-130.428
8.2391
-9.83393
60.9756
-34.0711
120.385
8.66938
5.92004
6.15726
-13.1348
-9.88896
-12.9899
-35.2715
3.84907
-17.8662
19.8981
-5.52873
34.9193
-145.184
5.80971
-103.521
111.13
-30.4941
143.609
6.8949
5.47714
6.27882
619.608
11.558
653.487
-2.18769
-3.15845
-1.88036
-3.05742
614.347
26.4087
651.371
-4.72349
-5.74256
-4.64796
-5.85926
611.4
49.4092
647.985
-9.17862
-13.7691
-9.32956
-13.9384
609.068
79.3974
652.087
-17.9543
-20.5487
-18.1618
-20.3723
593.93
118.903
653.186
-24.6333
-27.5928
-24.3725
-27.327
573.871
194.224
642.157
-38.0149
-48.9283
-37.771
-49.3838
141.019
341.489
628.72
147.981
140.371
147.568
-72.673
-96.5613
-74.3442
-98.0219
-158.021
-143.883
139.011
157.203
37.7758
35.7112
37.7335
35.4885
-28.3696
-11.0436
31.2653
8.40057
-0.252622
18.6869
-87.9454
-124.928
95.0631
-38.7733
137.897
13.4766
-109.173
-99.6314
104.514
-28.2733
119.087
18.1962
-112.242
-113.605
121.086
-26.2612
112.827
153.505
-160.909
551.669
40.7263
48.9692
28.2213
31.8999
-132.025
-159.59
-131.247
-159.75
157.144
152.555
155.571
39.9711
-145.004
154.961
-38.9791
142.556
-113.516
599.581
32.6616
29.0953
31.1603
26.3729
-156.568
-163.612
-155.382
-162.47
630.694
11.6381
664.837
628.112
29.0374
664.998
625.908
51.6413
662.765
623.271
81.9931
663.939
616.807
125.245
663.925
615.124
195.787
656.866
157.395
320.941
646.427
161.504
157.009
160.989
-129.229
-162.168
165.441
121.059
162.292
-39.0141
-47.924
-46.2629
49.9106
44.2573
39.0332
-32.1241
-52.8972
43.9099
10.1664
32.4833
-1.53832
1.70178
-10.3928
-38.1688
38.6304
44.5015
-10.4303
1.71871
1.44799
1.7272
-10.3496
-10.0535
-10.3326
733.144
-180.981
660.805
-174.869
-183.126
-177.187
-185.193
45.3923
43.1489
40.6598
44.7291
714.122
-155.94
673.996
41.1821
38.411
43.1758
40.4104
703.387
-136.514
661
33.3544
32.2245
34.7783
32.7473
690.783
-123.827
635.262
29.7931
28.3775
30.3016
31.627
689.979
-158.09
630.945
687.096
-134.478
636.449
40.8877
30.9137
32.8526
30.7874
-107.083
636.098
640.037
11.3131
674.744
639.003
30.0631
675.527
638.017
52.5579
673.652
637.29
82.6385
674.159
637.319
125.079
673.9
644.295
188.648
668.046
682.996
282.535
660.318
192.918
392.788
672.228
-113.186
-126.8
-112.056
-127.097
191.832
192.908
191.959
-125.523
-167.67
208.952
109.889
167.269
-55.9098
-160.731
-213.846
213.699
56.3322
160.457
-6.89514
-154.772
218.942
19.0952
155.437
-3.85467
-7.10759
-4.10785
-216.737
5.76454
-217.02
-156.286
207.483
-20.5035
158.72
6.90319
6.68263
8.25629
723.164
-187.804
663.646
55.0824
77.2325
56.5284
63.8359
-201.071
-204.071
-201.863
-204.209
739.869
-225.755
667.001
736.265
-164.403
668.333
723.123
-132.204
668.638
713.896
-120.453
653.87
707.434
-149.852
650.098
699.65
-124.99
654.168
-100.864
653.174
648.058
10.7916
683.235
648.059
30.0072
684.231
648.335
52.1747
682.548
649.752
81.1199
682.806
653.945
120.771
682.273
666.058
176.704
675.718
702.696
245.903
670.974
775.084
320.041
677.081
828.191
278.491
675.091
-95.7999
-70.5757
-95.2724
-70.2693
852.924
175.008
658.971
-53.8863
-46.527
-53.4794
-46.2471
844.778
27.7426
662.134
-15.8315
5.16318
-15.8074
5.94257
815.089
-38.1553
660.938
15.2859
32.834
18.9045
16.6526
775.639
-157.918
680.327
761.183
-200.78
679.411
747.785
-150.789
671.853
734.288
-123.178
676.97
724.229
-113.325
669.148
716.789
-140.655
667.167
708.853
-116.362
670.56
-94.8186
668.132
655.053
10.154
690.615
655.8
29.1633
691.63
657.242
50.6007
690.066
660.438
77.8128
690.213
667.429
113.737
689.053
681.528
164.242
679.704
716.408
211.886
681.822
771.611
264.923
686.236
816.162
233.761
685.471
840.921
150.21
673.866
834.184
34.8836
679.587
813.986
-19.8938
676.262
748.961
-63.4698
648.086
769.66
-183.626
657.915
755.293
-134.626
677.216
741.417
-111.738
684.59
730.699
-104.235
680.005
708.938
-129.173
678.588
714.105
-133.054
681.469
-88.3526
679.149
661.229
9.45943
697.093
662.553
27.7365
698.051
664.965
48.0459
696.592
669.564
73.1145
696.671
678.223
105.027
695.098
693.732
148.884
685.695
723.56
180.922
693.401
768.741
219.489
692.487
806.892
195.493
694.066
829.111
127.813
685.013
827.026
37.2258
689.922
812.874
-6.29175
686.653
798.429
-48.7221
688.129
772.982
-161.576
706.371
759.119
-119.204
684.753
745.604
-100.245
692.018
735.159
-94.6836
688.739
727.481
-118.624
688.391
718.062
-121.893
691.057
-81.452
688.51
666.749
8.71073
702.86
668.523
25.8731
703.731
671.737
44.7127
702.381
677.361
67.388
702.419
687.013
95.2891
700.859
703.951
131.93
692.542
729.383
154.788
701.395
766.677
181.993
698.856
799.101
162.912
701.294
818.657
108.166
694.021
819.171
36.616
698.594
809.772
2.89746
694.919
797.92
-36.3988
696.286
774.484
-140.673
711.535
761.748
-104.301
691.289
748.807
-88.5264
698.626
738.663
-84.9029
696.418
730.652
-107.746
696.337
721.067
-110.612
698.623
-74.2628
696.079
671.755
7.89969
708.077
673.893
23.6473
708.856
677.722
40.7766
707.621
684.114
60.9117
707.626
694.396
84.9207
706.236
711.728
114.641
699.193
734.087
132.146
707.299
765.814
150.097
705.874
792.884
135.684
707.38
809.904
91.0278
701.231
812.222
34.2133
705.351
814.998
-10.2136
711.401
797.293
-27.2894
711.937
775.724
-121.302
716.514
763.891
-90.388
697.705
751.525
-77.1439
704.454
741.735
-75.0272
702.731
733.489
-96.3577
702.944
723.675
-98.9186
705.135
-66.6814
702.858
676.328
7.01563
712.835
678.752
21.1396
713.513
683.063
36.385
712.405
689.996
53.915
712.416
700.628
74.2118
711.296
718.388
97.0394
706.133
738.04
112.535
712.498
765.262
122.778
713.173
788.026
112.831
711.588
803
75.9632
707.26
806.387
30.7876
711.072
821.228
-15.523
712.535
796.286
8.46614
712.318
776.605
-103.465
720.927
765.387
-76.7606
704.003
753.727
-66.0637
709.729
744.322
-65.2064
708.543
735.958
-84.7013
708.82
725.947
-87.0225
710.817
-58.8747
708.647
680.543
6.10538
717.22
683.2
18.4224
717.807
687.869
31.6473
716.847
695.182
46.5559
716.856
705.912
63.434
715.875
721.669
81.2137
711.529
740.476
93.6724
715.767
763.5
99.6763
718.242
784.152
92.1034
714.351
797.615
62.4339
712.527
801.559
26.7894
716.046
797.263
-10.8016
713.035
795.507
10.2868
713.51
759.245
-85.8442
724.606
766.463
-94.455
710.728
755.758
-55.5392
713.894
746.709
-55.5159
713.653
738.257
-72.8339
714.036
728.052
-74.8763
715.836
-50.8083
713.903
684.468
5.13534
721.315
687.288
15.553
721.813
692.222
26.66
720.986
699.773
38.972
720.938
710.298
52.9196
719.483
725.138
66.3127
716.78
742.863
75.9019
719.745
762.955
79.5243
722.393
781.629
73.3622
718.368
793.629
50.3861
717.603
797.884
22.5407
720.516
794.942
-7.50034
717.812
794.838
10.5503
718.911
776.386
-70.36
727.523
762.03
-76.269
717.207
757.405
-53.4871
716.119
748.808
-46.0416
718.159
740.298
-60.8275
718.832
729.993
-62.5835
720.375
-42.5844
718.703
688.133
4.14209
725.167
691.083
12.5673
725.566
696.218
21.493
724.877
703.883
31.3066
724.62
713.294
43.566
721.617
728.337
51.0735
722.075
745.144
59.0417
723.914
763.092
61.5425
726.047
779.995
56.4179
722.544
790.995
39.3598
722.164
795.386
18.2121
724.524
793.416
-5.22892
722.274
794.512
9.6712
723.81
766.448
-29.4511
716.238
768.815
-61.9523
714.005
759.289
-42.329
720.381
750.958
-36.6488
722.468
742.373
-48.7402
723.216
731.996
-50.1834
724.429
-34.2031
723.044
691.573
3.12518
728.794
694.624
9.49172
729.104
699.881
16.2106
728.557
707.68
23.5217
728.216
718.514
32.9181
725.562
731.882
37.5261
728.272
747.379
43.5013
728.153
764.133
44.7785
729.43
779.274
41.2538
726.608
789.878
28.7512
726.383
794.896
13.2811
728.185
792.856
-2.91717
726.396
794.739
8.04367
728.429
786.693
-21.4984
733.41
771.37
-47.8432
736.042
761.197
-30.6898
725.075
753.176
-27.3757
726.694
744.564
-36.6096
727.345
734.081
-37.7232
728.319
-25.7443
727.168
694.832
2.08314
732.249
697.944
6.35793
732.461
703.296
10.8352
732.075
711.14
15.6869
731.837
722.674
21.4756
730.336
734.944
25.1487
732.47
749.741
28.6788
731.805
765.201
29.3177
732.54
779.514
26.9253
730.408
789.225
19.0481
730.204
793.943
8.66417
731.53
793.074
-1.77101
730.277
795.64
5.70298
732.768
788.114
-14.0274
737.359
773.867
-34.7364
739.342
763.35
-18.8418
729.614
755.54
-18.1722
730.735
746.96
-24.4362
731.172
736.398
-25.1916
731.912
-17.2016
731.075
697.929
1.03742
735.525
701.088
3.18069
735.662
706.486
5.4277
735.428
714.334
7.84289
735.299
725.193
10.6155
734.419
737.728
12.579
735.431
752.191
14.2147
735.137
766.899
14.6207
735.433
780.622
13.1963
734.007
790.194
9.48651
733.833
794.626
4.36845
734.628
794.158
-0.984427
733.918
797.039
3.00215
736.907
789.881
-6.91158
741.12
776.837
-22.9492
742.815
765.624
-6.45141
734.051
758.022
-9.08819
734.62
749.398
-12.254
734.894
738.829
-12.6432
735.329
-8.63221
734.852
700.865
738.659
704.031
738.686
709.458
738.595
717.316
738.545
727.95
738.302
740.535
738.581
754.755
738.325