/*--------------------------------*- C++ -*----------------------------------*\
  =========                 |
  \\      /  F ield         | OpenFOAM: The Open Source CFD Toolbox
   \\    /   O peration     | Website:  https://openfoam.org
    \\  /    A nd           | Version:  10
     \\/     M anipulation  |
\*---------------------------------------------------------------------------*/
FoamFile
{
    format      ascii;
    class       volVectorField;
    location    "2000";
    object      U;
}
// * * * * * * * * * * * * * * * * * * * * * * * * * * * * * * * * * * * * * //

dimensions      [0 1 -1 0 0 0 0];

internalField   nonuniform List<vector> 
55398
(
(19.4232 0.269797 7.04891)
(19.9357 0.386323 7.03064)
(19.5593 0.0824915 7.02119)
(19.2931 0.549095 6.94068)
(18.7939 0.74849 6.87512)
(17.0599 0.938375 6.5531)
(20.1702 0.170573 7.33063)
(20.3365 0.30701 7.32409)
(20.1251 0.40839 7.31477)
(19.8968 0.757252 7.29005)
(19.503 1.10844 7.26483)
(18.7353 1.77937 7.22326)
(17.305 3.21373 7.13048)
(13.1695 5.9616 6.43098)
(-3.22474 0.338911 3.76479)
(-1.35023 0.00924833 5.32311)
(2.60452 -0.343357 6.12139)
(6.63273 -0.803348 6.5664)
(10.4585 -0.712103 7.03774)
(13.187 -1.26073 6.88732)
(20.7778 0.185279 7.55148)
(20.7827 0.333647 7.54733)
(20.6628 0.616822 7.5353)
(20.4538 0.974006 7.51912)
(20.1235 1.52114 7.49248)
(19.6196 2.52519 7.45482)
(18.9386 4.70325 7.41282)
(18.442 7.81518 7.17864)
(-0.919665 0.483613 1.53266)
(8.97041 -0.634344 3.9636)
(13.3946 -1.41067 4.71907)
(17.7009 -1.99485 5.91602)
(19.351 -1.97596 6.53443)
(21.0695 -1.74322 7.04145)
(21.4476 -1.63143 7.21549)
(21.1466 0.159497 7.68898)
(21.1507 0.371957 7.68333)
(21.0711 0.65534 7.67364)
(20.9274 1.05075 7.66091)
(20.7529 1.64156 7.63939)
(20.5124 2.66245 7.60392)
(20.6297 4.57798 7.55753)
(20.9548 7.00301 7.40367)
(25.6156 10.3535 7.17999)
(26.8014 3.13215 6.84477)
(22.44 -2.72884 6.85142)
(23.4872 -2.07107 7.65317)
(23.9788 -1.99399 7.36425)
(23.6663 -2.02651 7.16318)
(23.3369 -2.02192 7.15014)
(23.1084 -1.77059 7.29385)
(23.0608 -1.68399 7.38295)
(22.9705 -1.49714 7.48667)
(21.4546 0.1519 7.80311)
(21.4627 0.390965 7.79738)
(21.4227 0.687369 7.78896)
(21.3523 1.09776 7.77884)
(21.3038 1.69658 7.76065)
(21.3216 2.6298 7.73473)
(21.7276 4.22081 7.69083)
(23.626 5.93759 7.6012)
(26.3262 6.43902 7.357)
(28.8266 3.64608 7.25556)
(30.2123 1.85907 7.28625)
(28.1708 -2.57259 7.26377)
(26.3394 -2.29847 7.55467)
(25.2313 -2.0629 7.65255)
(24.8668 -2.01206 7.54808)
(24.4102 -1.97191 7.44477)
(23.9516 -1.88964 7.41794)
(23.6125 -1.66183 7.51096)
(23.5144 -1.58421 7.56129)
(23.3104 -1.44898 7.63416)
(21.7203 0.143337 7.9009)
(21.735 0.396495 7.89564)
(21.7311 0.698368 7.88853)
(21.7245 1.10467 7.87993)
(21.7825 1.67417 7.86554)
(21.9577 2.51075 7.84121)
(22.5684 3.66993 7.81503)
(24.2376 5.13212 7.73295)
(26.9237 4.30743 7.65309)
(28.5471 2.85548 7.61684)
(29.3415 0.917374 7.69179)
(27.9929 -1.35256 7.63322)
(26.4681 -1.87687 7.71722)
(25.7463 -1.89754 7.75745)
(25.3099 -1.86361 7.72868)
(24.8029 -1.80753 7.67239)
(24.372 -1.72663 7.64445)
(23.9912 -1.53114 7.6918)
(23.8632 -1.46818 7.7204)
(23.5829 -1.36831 7.77162)
(21.9539 0.135949 7.98655)
(21.976 0.392922 7.98181)
(22.0031 0.691321 7.9758)
(22.0538 1.08029 7.96982)
(22.1865 1.60446 7.9585)
(22.4845 2.32629 7.93643)
(23.131 3.21269 7.91701)
(24.6064 4.14217 7.86863)
(26.6477 3.59544 7.80601)
(28.0583 2.269 7.78914)
(28.4765 0.465391 7.76006)
(27.7704 -1.09433 7.77735)
(26.7912 -1.57159 7.83419)
(26.0471 -1.71269 7.87456)
(25.5605 -1.72482 7.86756)
(25.0303 -1.68228 7.82521)
(24.6131 -1.60582 7.79963)
(24.2126 -1.43188 7.82711)
(24.0636 -1.37171 7.84603)
(23.7298 -1.28717 7.88519)
(22.1623 0.127888 8.06287)
(22.1916 0.380536 8.0588)
(22.2449 0.667951 8.05369)
(22.3419 1.03093 8.04982)
(22.532 1.50312 8.04119)
(22.9 2.10141 8.0263)
(23.5632 2.78394 8.00454)
(24.8223 3.40322 7.9706)
(26.4538 3.02144 7.93344)
(27.6422 1.96432 7.91748)
(28.0608 0.463208 7.90026)
(27.6122 -0.733188 7.90508)
(26.8677 -1.21213 7.92474)
(26.1761 -1.40294 7.95507)
(25.6987 -1.47243 7.95726)
(25.1878 -1.47284 7.94017)
(24.791 -1.42627 7.92856)
(24.3885 -1.29654 7.94813)
(24.2231 -1.24776 7.96144)
(23.8577 -1.1817 7.98996)
(22.3505 0.120191 8.13231)
(22.3866 0.360612 8.12965)
(22.4611 0.631064 8.12575)
(22.5932 0.964079 8.12164)
(22.8257 1.37736 8.11507)
(23.2316 1.87419 8.09972)
(23.8899 2.39687 8.0823)
(24.9696 2.8203 8.05625)
(26.284 2.53415 8.03198)
(27.3074 1.65704 8.02261)
(27.6965 0.491966 8.01497)
(27.4099 -0.520898 8.01328)
(26.8231 -1.02672 8.02458)
(26.2292 -1.24755 8.04684)
(25.7782 -1.33743 8.05207)
(25.3029 -1.34675 8.04013)
(24.9257 -1.30825 8.03061)
(24.5252 -1.19574 8.04297)
(24.3476 -1.1488 8.05293)
(23.9572 -1.09149 8.07371)
(22.522 0.110638 8.19541)
(22.5643 0.33461 8.19396)
(22.6564 0.583851 8.1908)
(22.8158 0.883317 8.18653)
(23.0782 1.24096 8.18045)
(23.4995 1.65333 8.16891)
(24.1338 2.05026 8.15488)
(25.0733 2.3314 8.1333)
(26.1636 2.10488 8.11435)
(27.0349 1.39767 8.10979)
(27.3985 0.469748 8.10715)
(27.2254 -0.367747 8.10117)
(26.7833 -0.816081 8.10579)
(26.27 -1.03374 8.12252)
(25.8492 -1.12867 8.12922)
(25.4004 -1.1556 8.12432)
(25.0398 -1.13474 8.11946)
(24.6425 -1.05366 8.12932)
(24.4554 -1.01693 8.13712)
(24.0422 -0.97411 8.1521)
(22.6793 0.100393 8.25254)
(22.7272 0.30396 8.25141)
(22.8333 0.528381 8.24878)
(23.013 0.791721 8.24512)
(23.2948 1.09709 8.24009)
(23.7211 1.43527 8.23023)
(24.3267 1.74215 8.22001)
(25.1526 1.92699 8.20578)
(26.0738 1.74038 8.19125)
(26.8228 1.17144 8.18591)
(27.1607 0.430663 8.18434)
(27.07 -0.248474 8.17957)
(26.727 -0.654881 8.18042)
(26.2867 -0.8726 8.19263)
(25.8968 -0.977399 8.19925)
(25.4778 -1.01415 8.19827)
(25.1342 -1.00665 8.19521)
(24.7434 -0.944054 8.20239)
(24.5496 -0.913118 8.20785)
(24.1223 -0.875776 8.21879)
(22.8245 0.0889829 8.30527)
(22.8771 0.269514 8.30435)
(22.994 0.466858 8.3022)
(23.1886 0.693749 8.29922)
(23.4826 0.949994 8.29499)
(23.9059 1.22447 8.28822)
(24.4809 1.45984 8.27857)
(25.2179 1.58058 8.26866)
(26.0085 1.42664 8.25997)
(26.6627 0.972699 8.25274)
(26.9755 0.382684 8.25075)
(26.9392 -0.167924 8.24771)
(26.6779 -0.518635 8.24729)
(26.3017 -0.721967 8.25635)
(25.9406 -0.82035 8.26223)
(25.5498 -0.856476 8.26372)
(25.2185 -0.855658 8.26215)
(24.8337 -0.808724 8.26753)
(24.6344 -0.783958 8.27144)
(24.1948 -0.755002 8.27951)
(22.9594 0.0766673 8.35426)
(23.0158 0.232137 8.35352)
(23.1409 0.400776 8.3518)
(23.346 0.591323 8.34938)
(23.6471 0.801435 8.34608)
(24.0643 1.01964 8.34059)
(24.6104 1.19782 8.33307)
(25.2757 1.278 8.32594)
(25.9699 1.15008 8.32039)
(26.55 0.789886 8.31498)
(26.8371 0.331653 8.31296)
(26.8365 -0.11491 8.3115)
(26.6369 -0.406558 8.31035)
(26.3164 -0.585372 8.31495)
(25.9796 -0.674851 8.32083)
(25.6099 -0.713155 8.32291)
(25.2911 -0.719636 8.32244)
(24.9131 -0.688036 8.32652)
(24.7106 -0.670021 8.32923)
(24.2642 -0.647348 8.33499)
(23.0854 0.0636151 8.4)
(23.1446 0.192507 8.39942)
(23.2758 0.331401 8.39808)
(23.4881 0.485952 8.39622)
(23.7918 0.654157 8.39336)
(24.2023 0.823047 8.38911)
(24.7231 0.955297 8.38366)
(25.3319 1.00943 8.37872)
(25.954 0.906861 8.37457)
(26.4785 0.626515 8.37111)
(26.7451 0.268655 8.36937)
(26.7677 -0.0748634 8.36927)
(26.6106 -0.311538 8.36892)
(26.334 -0.460239 8.37139)
(26.0193 -0.539635 8.37461)
(25.6702 -0.574859 8.37604)
(25.3625 -0.583109 8.37579)
(24.9913 -0.56025 8.37896)
(24.787 -0.546118 8.38106)
(24.3346 -0.528257 8.38552)
(23.2034 0.0500008 8.44291)
(23.2647 0.151223 8.44247)
(23.4003 0.259697 8.44146)
(23.6175 0.378925 8.4401)
(23.9226 0.507835 8.43774)
(24.325 0.631925 8.43482)
(24.8279 0.726919 8.43108)
(25.3849 0.763133 8.42779)
(25.9911 0.677988 8.42496)
(26.4088 0.481048 8.42285)
(26.7501 0.221274 8.42121)
(26.7378 -0.0507577 8.42243)
(26.6083 -0.233151 8.42188)
(26.3609 -0.349167 8.42254)
(26.0662 -0.411995 8.42447)
(25.734 -0.441398 8.42559)
(25.4345 -0.450193 8.42557)
(25.0687 -0.43544 8.42781)
(24.8631 -0.425736 8.42917)
(24.4076 -0.413223 8.43229)
(23.3146 0.0359767 8.4833)
(23.3774 0.108767 8.483)
(23.516 0.186423 8.4823)
(23.7361 0.271149 8.48138)
(24.0424 0.361477 8.47963)
(24.4385 0.447805 8.4778)
(24.924 0.512487 8.47527)
(25.4553 0.531877 8.47318)
(26.0036 0.476607 8.47142)
(26.4285 0.332417 8.46996)
(26.6924 0.14299 8.46923)
(26.735 -0.0239161 8.47001)
(26.6308 -0.15635 8.46973)
(26.4055 -0.241711 8.47005)
(26.1257 -0.289359 8.47137)
(25.8054 -0.312401 8.47222)
(25.5124 -0.320473 8.47197)
(25.1508 -0.311141 8.47341)
(24.9444 -0.30452 8.47407)
(24.4865 -0.295574 8.47626)
(23.4195 0.0216632 8.52147)
(23.4833 0.0655088 8.52129)
(23.6238 0.112148 8.52088)
(23.8457 0.162869 8.52034)
(24.1522 0.215914 8.51944)
(24.5443 0.267197 8.51821)
(25.0182 0.303921 8.5169)
(25.5308 0.317049 8.51581)
(26.0503 0.281061 8.51494)
(26.4645 0.200427 8.51422)
(26.7208 0.0835822 8.51384)
(26.7608 -0.011927 8.51431)
(26.6718 -0.0907561 8.5141)
(26.4615 -0.141891 8.51422)
(26.1921 -0.171091 8.5153)
(25.8814 -0.185111 8.51569)
(25.5927 -0.190665 8.51531)
(25.2344 -0.185647 8.51618)
(25.0278 -0.182054 8.51665)
(24.5689 -0.177077 8.51815)
(23.5188 0.00721684 8.55754)
(23.5829 0.0218374 8.55737)
(23.7241 0.0373752 8.55713)
(23.9468 0.0542228 8.55685)
(24.2533 0.0717173 8.55647)
(24.6427 0.0883305 8.55601)
(25.1134 0.0994776 8.55555)
(25.6083 0.10452 8.55515)
(26.146 0.0903889 8.55486)
(26.5024 0.0649436 8.55468)
(26.8105 0.0355224 8.55472)
(26.8093 -0.00709122 8.55488)
(26.7367 -0.0330541 8.55469)
(26.535 -0.0493003 8.55445)
(26.2699 -0.0585085 8.55421)
(25.9618 -0.0631925 8.55348)
(25.6758 -0.0650457 8.55309)
(25.3181 -0.0632713 8.5529)
(25.111 -0.0620042 8.55286)
(24.6505 -0.0600688 8.5531)
(19.4254 0.253419 7.05262)
(19.951 0.373156 7.05187)
(19.6071 0.102154 7.04029)
(19.4225 0.592007 7.0168)
(18.7579 0.74875 6.87177)
(17.5198 1.01615 6.73755)
(20.1854 0.166227 7.33497)
(20.3587 0.308248 7.33493)
(20.1584 0.407272 7.32866)
(19.9287 0.757668 7.29881)
(19.5263 1.11188 7.26427)
(18.767 1.79499 7.22585)
(17.3686 3.25431 7.03696)
(12.9111 5.79466 6.44357)
(-3.09967 0.371849 3.31654)
(-1.25287 0.0392824 4.55331)
(2.56446 -0.315352 5.69586)
(6.74907 -0.732064 6.33414)
(9.93458 -0.634197 6.79367)
(14.1947 -1.25376 6.88603)
(20.784 0.183944 7.55542)
(20.7868 0.334162 7.55281)
(20.6721 0.615799 7.5414)
(20.4732 0.974787 7.52258)
(20.1469 1.52708 7.50209)
(19.6677 2.52293 7.43316)
(19.0774 4.6905 7.32413)
(18.5164 7.84404 7.13006)
(-0.332658 0.416631 3.47689)
(10.4994 -1.03464 4.71798)
(12.9494 -1.19209 4.61267)
(16.7547 -1.69065 5.44628)
(20.3269 -1.82076 6.54625)
(20.7841 -1.7383 6.70977)
(21.935 -1.56493 7.18321)
(21.1494 0.158778 7.69121)
(21.1535 0.372237 7.68851)
(21.077 0.656012 7.67893)
(20.9423 1.05242 7.66191)
(20.7716 1.64405 7.64588)
(20.5498 2.66215 7.58116)
(20.7301 4.52229 7.50166)
(21.0026 6.97147 7.43657)
(25.279 10.7941 6.92866)
(26.788 3.60585 6.66559)
(21.8428 -2.6577 6.91476)
(24.1546 -2.40596 7.69146)
(23.9438 -2.08547 7.56671)
(23.621 -1.93736 7.31611)
(23.2816 -1.88655 7.17142)
(23.1343 -1.70982 7.24967)
(23.1035 -1.65485 7.34858)
(23.0035 -1.46847 7.44952)
(21.4565 0.151856 7.80501)
(21.4646 0.39121 7.80228)
(21.4269 0.687868 7.79369)
(21.3642 1.09896 7.77887)
(21.318 1.69795 7.76455)
(21.3534 2.62413 7.71304)
(21.784 4.18647 7.66412)
(23.6645 5.81907 7.62586)
(26.2737 6.43928 7.54022)
(28.71 3.61304 7.38942)
(30.1642 0.959932 7.20699)
(28.2503 -2.47108 7.29309)
(26.2667 -2.39031 7.58609)
(25.2736 -2.13119 7.70442)
(24.8366 -2.02782 7.66547)
(24.3742 -1.92812 7.53162)
(23.9502 -1.82539 7.43493)
(23.6385 -1.61094 7.48717)
(23.5391 -1.5536 7.53688)
(23.3364 -1.42673 7.61169)
(21.7216 0.143239 7.90257)
(21.7362 0.396672 7.90008)
(21.7339 0.698601 7.89267)
(21.734 1.10501 7.87964)
(21.7936 1.67348 7.86751)
(21.9819 2.50378 7.82535)
(22.6035 3.63717 7.80021)
(24.2569 5.0583 7.74789)
(26.9114 4.25898 7.71501)
(28.5225 2.84649 7.64711)
(29.037 0.379134 7.68366)
(28.1116 -1.16409 7.69512)
(26.5462 -1.86823 7.75241)
(25.7359 -1.94607 7.79419)
(25.2651 -1.90355 7.79014)
(24.7682 -1.79971 7.7228)
(24.3639 -1.68828 7.6669)
(24.0004 -1.49702 7.68923)
(23.8752 -1.4416 7.71086)
(23.5983 -1.34671 7.75856)
(21.9549 0.135907 7.98808)
(21.9769 0.393066 7.98586)
(22.005 0.691339 7.97941)
(22.0606 1.07987 7.96853)
(22.1954 1.60313 7.95794)
(22.4985 2.3172 7.92588)
(23.1567 3.18315 7.90488)
(24.6176 4.09648 7.88241)
(26.6378 3.56428 7.8576)
(28.0356 2.24728 7.82012)
(28.4572 0.407496 7.80996)
(27.7628 -1.1119 7.78954)
(26.8052 -1.58938 7.82748)
(26.0478 -1.71768 7.87911)
(25.5502 -1.72723 7.89065)
(25.02 -1.66577 7.85849)
(24.614 -1.57971 7.82128)
(24.218 -1.4123 7.8304)
(24.0708 -1.354 7.84203)
(23.7425 -1.2701 7.87772)
(22.163 0.127885 8.06417)
(22.1924 0.380583 8.06227)
(22.2464 0.667825 8.05661)
(22.3472 1.0308 8.04811)
(22.5388 1.50005 8.03785)
(22.9104 2.10246 8.01861)
(23.5725 2.76616 8.00175)
(24.8228 3.37322 7.98342)
(26.4398 3.00004 7.96643)
(27.6315 1.93714 7.93952)
(28.0452 0.471013 7.93235)
(27.599 -0.732241 7.92838)
(26.8679 -1.23108 7.94308)
(26.1766 -1.4278 7.9726)
(25.6867 -1.49172 7.97742)
(25.179 -1.46927 7.96048)
(24.7901 -1.4093 7.94075)
(24.3899 -1.28189 7.94937)
(24.2264 -1.23366 7.95838)
(23.8653 -1.16894 7.98481)
(22.351 0.120007 8.13279)
(22.3872 0.360787 8.13096)
(22.4627 0.630998 8.12623)
(22.5977 0.963522 8.11922)
(22.8313 1.37616 8.11123)
(23.236 1.86973 8.09887)
(23.8918 2.39083 8.08248)
(24.9685 2.80105 8.06802)
(26.2774 2.51317 8.05743)
(27.2986 1.63742 8.04093)
(27.6857 0.491543 8.0326)
(27.4011 -0.527832 8.03126)
(26.8234 -1.03421 8.04054)
(26.2291 -1.25381 8.05905)
(25.7724 -1.33974 8.0659)
(25.2959 -1.33849 8.0565)
(24.9243 -1.295 8.04188)
(24.5255 -1.18652 8.04568)
(24.3492 -1.13978 8.05157)
(23.9624 -1.08018 8.07063)
(22.5224 0.110732 8.19527)
(22.565 0.334656 8.19366)
(22.6577 0.583669 8.18968)
(22.8188 0.882161 8.18362)
(23.0821 1.23947 8.17717)
(23.5022 1.64973 8.16772)
(24.135 2.04864 8.1556)
(25.0723 2.3214 8.14461)
(26.1587 2.08828 8.13503)
(27.0286 1.38223 8.12336)
(27.3919 0.467292 8.11762)
(27.2177 -0.37763 8.1177)
(26.7822 -0.821366 8.12109)
(26.2693 -1.03919 8.13172)
(25.8447 -1.13321 8.13672)
(25.3968 -1.15141 8.13336)
(25.0392 -1.12693 8.12575)
(24.6426 -1.04806 8.13061)
(24.4565 -1.01138 8.13577)
(24.0471 -0.965958 8.15048)
(22.6796 0.100407 8.2524)
(22.7278 0.30395 8.25107)
(22.8344 0.528127 8.24781)
(23.0154 0.790651 8.24292)
(23.2978 1.09568 8.23762)
(23.7222 1.43052 8.2303)
(24.3281 1.73677 8.22115)
(25.1535 1.91719 8.21221)
(26.07 1.72964 8.20354)
(26.8197 1.16084 8.19628)
(27.1568 0.428178 8.19241)
(27.0637 -0.253284 8.19392)
(26.7248 -0.659171 8.19549)
(26.2863 -0.875587 8.20151)
(25.8933 -0.979735 8.20513)
(25.4752 -1.01094 8.20497)
(25.1333 -1.00013 8.19993)
(24.7432 -0.939725 8.2036)
(24.5501 -0.908408 8.20726)
(24.1261 -0.868251 8.2181)
(22.8248 0.0889854 8.30517)
(22.8776 0.269473 8.30409)
(22.995 0.466579 8.30145)
(23.1905 0.692803 8.29759)
(23.485 0.948371 8.29336)
(23.9078 1.22205 8.28759)
(24.4821 1.45416 8.28125)
(25.2179 1.57214 8.27416)
(26.0076 1.41966 8.26663)
(26.6609 0.964721 8.2613)
(26.9727 0.382405 8.25737)
(26.9335 -0.174315 8.26216)
(26.6763 -0.521596 8.26213)
(26.3018 -0.724636 8.26328)
(25.9378 -0.8222 8.26564)
(25.5481 -0.855249 8.26711)
(25.2186 -0.851635 8.265)
(24.8337 -0.806527 8.26839)
(24.6349 -0.781189 8.2713)
(24.1978 -0.749534 8.27938)
(22.9597 0.0766682 8.35419)
(23.0162 0.23209 8.35334)
(23.1416 0.400515 8.35127)
(23.3474 0.59045 8.34828)
(23.6487 0.800151 8.34502)
(24.0657 1.01716 8.34057)
(24.6113 1.1931 8.33582)
(25.2756 1.27188 8.33051)
(25.9697 1.14447 8.32481)
(26.5485 0.785036 8.32067)
(26.8356 0.330659 8.31753)
(26.8338 -0.117806 8.32121)
(26.6344 -0.409108 8.32144)
(26.3153 -0.588572 8.31974)
(25.9787 -0.675706 8.32214)
(25.6088 -0.712086 8.32466)
(25.2914 -0.71639 8.32412)
(24.913 -0.686016 8.32708)
(24.7109 -0.667462 8.32931)
(24.2665 -0.642584 8.33523)
(23.0855 0.0636186 8.39995)
(23.1449 0.192464 8.39931)
(23.2763 0.331167 8.39773)
(23.4893 0.485249 8.39553)
(23.7931 0.652718 8.39324)
(24.2033 0.820614 8.38982)
(24.7239 0.951299 8.38633)
(25.3318 1.00455 8.38239)
(25.9542 0.90183 8.37769)
(26.4774 0.622958 8.37457)
(26.7442 0.267672 8.37241)
(26.7665 -0.0781515 8.37447)
(26.6097 -0.313181 8.37393)
(26.3339 -0.461558 8.3744)
(26.0189 -0.540725 8.37587)
(25.6695 -0.574424 8.37782)
(25.3626 -0.580978 8.37726)
(24.9909 -0.559054 8.37935)
(24.7871 -0.544393 8.38105)
(24.3365 -0.524581 8.38561)
(23.2036 0.0500024 8.44288)
(23.265 0.151186 8.44242)
(23.4007 0.259515 8.44126)
(23.6183 0.378367 8.43976)
(23.9237 0.506313 8.43781)
(24.3256 0.630067 8.43589)
(24.8284 0.723995 8.43338)
(25.3848 0.759499 8.43054)
(25.9917 0.674581 8.42709)
(26.4077 0.478899 8.42509)
(26.7502 0.220032 8.42337)
(26.7375 -0.0519742 8.42409)
(26.608 -0.234835 8.42374)
(26.3609 -0.350518 8.42424)
(26.0659 -0.413015 8.42643)
(25.7336 -0.441221 8.42769)
(25.4347 -0.448696 8.427)
(25.0684 -0.434557 8.4283)
(24.8632 -0.424416 8.42938)
(24.4091 -0.410332 8.43248)
(23.3146 0.0359745 8.48329)
(23.3775 0.10874 8.48298)
(23.5162 0.186297 8.48221)
(23.7366 0.270759 8.48122)
(24.0429 0.360306 8.47984)
(24.4392 0.446251 8.47874)
(24.9243 0.510354 8.47704)
(25.4555 0.529469 8.47512)
(26.0034 0.474502 8.47278)
(26.4289 0.330842 8.4712)
(26.6919 0.141995 8.47035)
(26.735 -0.0248656 8.47087)
(26.6306 -0.157268 8.47074)
(26.4055 -0.242176 8.47121)
(26.1255 -0.289333 8.47255)
(25.8053 -0.311945 8.47354)
(25.5126 -0.319306 8.47296)
(25.1507 -0.310676 8.47374)
(24.9446 -0.303774 8.47437)
(24.4877 -0.293628 8.47639)
(23.4196 0.0216637 8.52147)
(23.4833 0.0654933 8.52129)
(23.6239 0.112076 8.52085)
(23.8461 0.162618 8.52027)
(24.1525 0.215544 8.51965)
(24.5446 0.26629 8.51892)
(25.0184 0.302592 8.51801)
(25.5309 0.315502 8.51695)
(26.0505 0.2796 8.51567)
(26.4646 0.19949 8.5148)
(26.7213 0.0830049 8.51438)
(26.7613 -0.0124479 8.51479)
(26.6717 -0.0913076 8.51479)
(26.4614 -0.142274 8.51506)
(26.1921 -0.171006 8.51609)
(25.881 -0.185157 8.51658)
(25.5929 -0.190073 8.51605)
(25.2343 -0.18541 8.51647)
(25.0279 -0.181587 8.51688)
(24.5698 -0.175897 8.51821)
(23.5189 0.00721912 8.55754)
(23.5829 0.021835 8.55737)
(23.7242 0.0373512 8.55712)
(23.9469 0.0541426 8.55683)
(24.2535 0.0715909 8.55652)
(24.6428 0.0881038 8.55621)
(25.1135 0.099183 8.55587)
(25.6084 0.10421 8.5555)
(26.1461 0.0901321 8.55509)
(26.5024 0.064787 8.55485)
(26.8108 0.0354142 8.55485)
(26.8094 -0.00703274 8.55501)
(26.7366 -0.0332165 8.55503)
(26.535 -0.049407 8.55491)
(26.2699 -0.0584025 8.55469)
(25.9613 -0.0631482 8.55396)
(25.6756 -0.0648416 8.55336)
(25.3179 -0.0632135 8.55306)
(25.1108 -0.0618783 8.55292)
(24.651 -0.0597196 8.55289)
(19.4259 0.247504 7.05196)
(19.9475 0.375798 7.04866)
(19.6126 0.106066 7.04414)
(19.4735 0.591503 7.02571)
(18.8509 0.747535 6.91826)
(17.7909 1.09258 6.82128)
(20.188 0.165632 7.33768)
(20.3526 0.311395 7.33228)
(20.1598 0.408778 7.32827)
(19.938 0.758137 7.31142)
(19.5367 1.11638 7.27731)
(18.7919 1.80532 7.24823)
(17.4756 3.34605 7.14889)
(13.7246 6.20651 6.73341)
(-3.36892 0.31161 3.06831)
(-1.53608 0.0849838 3.62931)
(2.20355 -0.13316 4.94368)
(7.10552 -0.732647 5.86292)
(9.95339 -0.599005 6.54356)
(14.3006 -1.32279 6.71552)
(20.7847 0.18297 7.55625)
(20.7865 0.33573 7.5535)
(20.6728 0.617903 7.54412)
(20.4743 0.975959 7.52854)
(20.1479 1.52772 7.51089)
(19.6903 2.53373 7.46187)
(19.1164 4.66018 7.41431)
(18.813 7.7307 7.25477)
(4.07988 -1.22845 7.83661)
(12.5931 -1.55526 6.01231)
(13.6314 -1.29552 5.23587)
(15.7712 -1.35734 5.18194)
(20.1988 -1.69368 6.40416)
(20.5276 -1.64029 6.55847)
(21.8289 -1.53013 7.09651)
(21.1504 0.158422 7.69264)
(21.1536 0.372375 7.69024)
(21.0781 0.656878 7.68257)
(20.9443 1.05337 7.66927)
(20.7727 1.64527 7.65776)
(20.5704 2.66307 7.61039)
(20.7343 4.50233 7.56828)
(21.0186 6.92748 7.46765)
(25.5557 10.3386 7.12051)
(27.423 3.73655 6.60929)
(22.3592 -2.68771 7.20478)
(24.3691 -2.66108 7.78455)
(23.9272 -2.24873 7.74148)
(23.5419 -1.92754 7.48254)
(23.2265 -1.75216 7.23753)
(23.1317 -1.61149 7.25807)
(23.1153 -1.60807 7.32403)
(23.0167 -1.45429 7.42416)
(21.4573 0.151752 7.80619)
(21.4648 0.391202 7.8041)
(21.4279 0.688142 7.79758)
(21.3662 1.09921 7.78615)
(21.3189 1.69804 7.7758)
(21.3701 2.6195 7.73662)
(21.781 4.18048 7.70319)
(23.6488 5.80956 7.6231)
(26.3018 6.41131 7.51152)
(28.7577 3.54992 7.4244)
(30.1224 0.945072 7.28157)
(28.3045 -2.23214 7.24714)
(26.2992 -2.37166 7.57204)
(25.3287 -2.23844 7.78065)
(24.7928 -2.09674 7.77715)
(24.2962 -1.91916 7.63285)
(23.9251 -1.76548 7.49186)
(23.6543 -1.55881 7.48874)
(23.5638 -1.5178 7.52308)
(23.3482 -1.40576 7.59522)
(21.7223 0.143102 7.90358)
(21.7364 0.396546 7.90183)
(21.7348 0.698544 7.89634)
(21.7356 1.10491 7.88642)
(21.7948 1.67296 7.87721)
(21.993 2.4973 7.84411)
(22.6023 3.63475 7.82264)
(24.2486 5.05294 7.75226)
(26.9111 4.26969 7.68243)
(28.5399 2.85836 7.63428)
(28.9389 0.234244 7.61194)
(28.1049 -1.11975 7.65592)
(26.6562 -1.81615 7.75222)
(25.7928 -1.97493 7.83926)
(25.2487 -1.95192 7.84381)
(24.7165 -1.81355 7.77292)
(24.3431 -1.66515 7.70244)
(24.003 -1.46698 7.69798)
(23.8844 -1.41455 7.71237)
(23.6038 -1.32781 7.75306)
(21.9555 0.135822 7.98896)
(21.9772 0.39293 7.98748)
(22.0057 0.691041 7.98271)
(22.0615 1.0795 7.97441)
(22.1965 1.60219 7.96524)
(22.5047 2.30893 7.94084)
(23.1548 3.18163 7.91708)
(24.6141 4.09592 7.87729)
(26.637 3.56636 7.82472)
(28.0387 2.25942 7.78523)
(28.4617 0.394902 7.79249)
(27.7613 -1.13884 7.79401)
(26.8142 -1.61767 7.82205)
(26.0616 -1.74214 7.88317)
(25.5388 -1.74469 7.90755)
(25.0011 -1.6599 7.88261)
(24.6113 -1.55477 7.84595)
(24.2261 -1.38894 7.83998)
(24.0807 -1.33212 7.84745)
(23.749 -1.25641 7.87542)
(22.1635 0.127849 8.06489)
(22.1926 0.3803 8.06362)
(22.2469 0.66717 8.0595)
(22.3474 1.03024 8.05263)
(22.5389 1.49873 8.04362)
(22.9103 2.09593 8.0241)
(23.5727 2.7639 8.00504)
(24.8208 3.37162 7.97563)
(26.4362 3.00716 7.94203)
(27.6348 1.94308 7.9126)
(28.051 0.468217 7.91364)
(27.6039 -0.725346 7.92604)
(26.8676 -1.23879 7.94006)
(26.1803 -1.44111 7.97649)
(25.6793 -1.50944 7.99335)
(25.1646 -1.47529 7.97922)
(24.786 -1.39919 7.9571)
(24.3925 -1.26594 7.95522)
(24.2328 -1.21557 7.96193)
(23.87 -1.15666 7.98312)
(22.3512 0.119839 8.13331)
(22.3874 0.360417 8.1321)
(22.4633 0.630247 8.1284)
(22.5982 0.962575 8.12255)
(22.831 1.37566 8.11492)
(23.2355 1.87138 8.10185)
(23.8916 2.38485 8.08394)
(24.9665 2.79955 8.06188)
(26.2754 2.51788 8.03919)
(27.2992 1.64251 8.02109)
(27.6889 0.491768 8.01756)
(27.4044 -0.52844 8.02399)
(26.8254 -1.04519 8.03509)
(26.2327 -1.26399 8.05923)
(25.7693 -1.34688 8.07307)
(25.2879 -1.33705 8.06776)
(24.9217 -1.28272 8.05514)
(24.5268 -1.17308 8.05254)
(24.3531 -1.12581 8.05599)
(23.9651 -1.07116 8.07045)
(22.5225 0.110705 8.19557)
(22.565 0.33446 8.19433)
(22.6583 0.583022 8.1911)
(22.8193 0.881394 8.1862)
(23.0817 1.23936 8.18001)
(23.5018 1.65022 8.16959)
(24.135 2.04563 8.15666)
(25.071 2.32217 8.14023)
(26.1575 2.09332 8.12324)
(27.0293 1.38579 8.10996)
(27.3923 0.469308 8.10543)
(27.2199 -0.374866 8.11234)
(26.7808 -0.831633 8.11986)
(26.2712 -1.04773 8.13614)
(25.8417 -1.14082 8.14421)
(25.3912 -1.15275 8.14154)
(25.0377 -1.12032 8.13414)
(24.6435 -1.03949 8.13475)
(24.4596 -1.00166 8.1387)
(24.0501 -0.958986 8.15039)
(22.6797 0.100376 8.25264)
(22.7278 0.30391 8.25155)
(22.8348 0.527863 8.24886)
(23.0157 0.79034 8.24491)
(23.2976 1.09593 8.23977)
(23.7225 1.43093 8.2321)
(24.3271 1.73472 8.22148)
(25.1525 1.91697 8.20879)
(26.0701 1.73109 8.19702)
(26.8201 1.16218 8.18727)
(27.1568 0.429895 8.18365)
(27.0651 -0.251056 8.18984)
(26.723 -0.665952 8.19228)
(26.288 -0.880349 8.2035)
(25.8915 -0.983223 8.21012)
(25.4713 -1.01103 8.21018)
(25.1322 -0.993995 8.20637)
(24.7435 -0.932307 8.20741)
(24.5521 -0.899856 8.21024)
(24.1281 -0.862148 8.21854)
(22.8248 0.0889666 8.30535)
(22.8776 0.269482 8.30445)
(22.9952 0.466394 8.30224)
(23.1906 0.692594 8.29903)
(23.4847 0.948702 8.29493)
(23.9079 1.22029 8.28841)
(24.4818 1.45372 8.28092)
(25.2178 1.57398 8.27196)
(26.0071 1.42123 8.26313)
(26.6618 0.96493 8.25602)
(26.9727 0.38377 8.25265)
(26.9359 -0.171347 8.25508)
(26.6743 -0.52875 8.2566)
(26.3036 -0.726669 8.26405)
(25.9365 -0.823711 8.27164)
(25.5444 -0.855639 8.27201)
(25.2178 -0.847577 8.26968)
(24.8339 -0.801721 8.27122)
(24.6366 -0.775424 8.27377)
(24.1996 -0.745239 8.28)
(22.9597 0.0766517 8.35432)
(23.0161 0.232102 8.3536)
(23.1419 0.400362 8.35183)
(23.3475 0.590284 8.34929)
(23.6485 0.800464 8.34599)
(24.0657 1.01604 8.34116)
(24.6112 1.19272 8.33534)
(25.2756 1.2728 8.32871)
(25.9696 1.14522 8.32213)
(26.5489 0.785155 8.31721)
(26.8356 0.331128 8.31453)
(26.8353 -0.116003 8.31614)
(26.6343 -0.41226 8.3171)
(26.3154 -0.58848 8.32307)
(25.9771 -0.676277 8.32783)
(25.6065 -0.711805 8.32877)
(25.2911 -0.712849 8.32753)
(24.9133 -0.681796 8.32923)
(24.7122 -0.662186 8.33129)
(24.2679 -0.638654 8.3359)
(23.0856 0.0636045 8.40005)
(23.1449 0.192477 8.39948)
(23.2765 0.331034 8.39811)
(23.4893 0.48516 8.39619)
(23.793 0.652932 8.39371)
(24.203 0.820404 8.38999)
(24.7238 0.951354 8.38554)
(25.3318 1.00523 8.38086)
(25.9543 0.902059 8.37598)
(26.4778 0.622692 8.37235)
(26.744 0.26818 8.37052)
(26.7675 -0.0774617 8.37176)
(26.6095 -0.315766 8.37194)
(26.334 -0.462748 8.37527)
(26.0181 -0.541518 8.37842)
(25.6688 -0.574504 8.38024)
(25.3629 -0.578725 8.37966)
(24.9911 -0.556274 8.38106)
(24.788 -0.540678 8.38264)
(24.3375 -0.521759 8.38604)
(23.2036 0.0499928 8.44294)
(23.2649 0.151197 8.44252)
(23.4008 0.259404 8.4415)
(23.6182 0.37834 8.44016)
(23.9236 0.505809 8.43798)
(24.3255 0.630023 8.43558)
(24.8284 0.724122 8.4324)
(25.3849 0.75999 8.42923)
(25.9919 0.674661 8.42591)
(26.4077 0.478944 8.42374)
(26.7503 0.220156 8.4222)
(26.7379 -0.0518046 8.42282)
(26.6079 -0.23551 8.42323)
(26.3609 -0.352092 8.4236)
(26.066 -0.413192 8.42621)
(25.733 -0.441325 8.42849)
(25.4351 -0.447169 8.42852)
(25.0686 -0.432554 8.42972)
(24.864 -0.421608 8.43084)
(24.41 -0.40811 8.43302)
(23.3147 0.0359661 8.48333)
(23.3775 0.108743 8.48304)
(23.5163 0.186217 8.48235)
(23.7366 0.270732 8.4814)
(24.0428 0.360053 8.47997)
(24.439 0.44609 8.47832)
(24.9243 0.510357 8.4762)
(25.4556 0.529764 8.47415)
(26.0034 0.474602 8.47203)
(26.429 0.330884 8.47045)
(26.692 0.142134 8.46972)
(26.7352 -0.0245981 8.47021)
(26.6305 -0.158112 8.47051)
(26.4054 -0.243287 8.47088)
(26.1255 -0.28962 8.47255)
(25.8049 -0.311952 8.47403)
(25.5131 -0.317983 8.47399)
(25.1509 -0.309123 8.47477)
(24.9454 -0.301775 8.47548)
(24.4885 -0.292183 8.47681)
(23.4196 0.0216603 8.52148)
(23.4833 0.0654967 8.52131)
(23.624 0.11203 8.52091)
(23.846 0.162588 8.52033)
(24.1525 0.215517 8.5196)
(24.5445 0.26636 8.5186)
(25.0184 0.302715 8.51741)
(25.531 0.315723 8.5163)
(26.0506 0.279605 8.51521)
(26.4646 0.199484 8.51439)
(26.7213 0.0830541 8.51406)
(26.7615 -0.0124383 8.51445)
(26.6718 -0.0916369 8.51475)
(26.4613 -0.14289 8.51504)
(26.1922 -0.170943 8.5163)
(25.8805 -0.185353 8.51724)
(25.5932 -0.189473 8.51695)
(25.2343 -0.184619 8.51729)
(25.0284 -0.180457 8.51768)
(24.5704 -0.17504 8.51845)
(23.5189 0.00721856 8.55754)
(23.5829 0.0218371 8.55738)
(23.7242 0.0373384 8.55713)
(23.9469 0.054134 8.55683)
(24.2535 0.0714787 8.55646)
(24.6428 0.087948 8.55603)
(25.1135 0.0989962 8.55557)
(25.6084 0.104131 8.55518)
(26.1462 0.0901277 8.55485)
(26.5024 0.0648355 8.55465)
(26.8109 0.0354406 8.5547)
(26.8096 -0.00691694 8.55491)
(26.7367 -0.0332135 8.55513)
(26.5349 -0.0496145 8.55509)
(26.2699 -0.0581919 8.55495)
(25.9606 -0.0631786 8.55451)
(25.6753 -0.0646187 8.55374)
(25.3174 -0.0629517 8.55337)
(25.1106 -0.0615546 8.55312)
(24.6511 -0.0595169 8.55293)
(19.4258 0.24812 7.05242)
(19.9464 0.37373 7.04844)
(19.6103 0.108496 7.04192)
(19.4842 0.587062 7.03722)
(18.9066 0.749242 6.93643)
(17.8064 1.09448 6.82922)
(20.1879 0.166335 7.33813)
(20.3508 0.310787 7.332)
(20.1546 0.411642 7.32661)
(19.9383 0.757617 7.3113)
(19.536 1.11495 7.27951)
(18.7898 1.80754 7.24327)
(17.4957 3.36129 7.14459)
(14.0792 6.25475 6.8084)
(-3.87903 0.290481 3.09124)
(-2.02587 0.0969814 2.81233)
(1.52743 0.0455031 3.98802)
(6.28883 -0.532654 5.02973)
(9.37649 -0.526423 6.1759)
(13.7505 -1.26937 6.52493)
(20.7849 0.182159 7.55611)
(20.7863 0.336376 7.55265)
(20.6726 0.619355 7.54315)
(20.4742 0.976882 7.52735)
(20.1465 1.52785 7.50784)
(19.6983 2.53977 7.46404)
(19.1212 4.65569 7.40349)
(18.8156 7.73558 7.23784)
(3.96879 -1.31107 8.10805)
(14.4624 -2.25118 7.40158)
(15.1605 -1.62763 6.30194)
(15.7674 -1.27022 5.43477)
(19.8962 -1.53181 6.30044)
(20.1275 -1.48857 6.37586)
(21.538 -1.45898 6.93437)
(21.1504 0.158488 7.69249)
(21.1534 0.372394 7.68934)
(21.078 0.657232 7.68126)
(20.9444 1.05357 7.66763)
(20.7707 1.64541 7.65435)
(20.5767 2.66387 7.61123)
(20.7331 4.49703 7.56314)
(20.9954 6.91341 7.45327)
(25.4597 10.4358 7.16425)
(27.5767 3.78675 6.86404)
(22.3785 -2.83757 6.84521)
(24.611 -2.87426 7.71017)
(23.9736 -2.44752 7.82725)
(23.4917 -1.98905 7.62915)
(23.1716 -1.66403 7.34745)
(23.0794 -1.48997 7.28411)
(23.0778 -1.54189 7.30499)
(23.0099 -1.42602 7.38249)
(21.4573 0.151718 7.80599)
(21.4647 0.391202 7.80312)
(21.4278 0.688301 7.79633)
(21.3663 1.0992 7.78468)
(21.317 1.69792 7.77276)
(21.3759 2.61851 7.73823)
(21.7815 4.17782 7.69751)
(23.6327 5.8094 7.62262)
(26.2964 6.40658 7.50569)
(28.7811 3.54602 7.40008)
(30.1171 0.845899 7.30978)
(28.3877 -2.14529 7.31046)
(26.3383 -2.38518 7.52051)
(25.392 -2.35995 7.7576)
(24.7721 -2.19339 7.82882)
(24.217 -1.93895 7.72169)
(23.8746 -1.72416 7.57416)
(23.6335 -1.50575 7.51021)
(23.5659 -1.47996 7.51565)
(23.3574 -1.37833 7.57253)
(21.7223 0.143079 7.90341)
(21.7364 0.396489 7.90094)
(21.7347 0.698568 7.89515)
(21.7356 1.10488 7.88512)
(21.7935 1.67297 7.87479)
(21.996 2.49576 7.84513)
(22.6033 3.63316 7.81928)
(24.2392 5.05164 7.75282)
(26.9044 4.26762 7.68847)
(28.5522 2.87259 7.64429)
(28.9283 0.188095 7.617)
(28.0638 -1.15087 7.63841)
(26.7375 -1.7846 7.71926)
(25.8522 -2.01045 7.83002)
(25.2609 -1.99805 7.87073)
(24.6798 -1.82983 7.8148)
(24.3151 -1.65064 7.74251)
(23.9892 -1.44166 7.71153)
(23.8807 -1.39209 7.71397)
(23.606 -1.30781 7.74434)
(21.9554 0.135822 7.98879)
(21.9772 0.392883 7.9867)