# vtk DataFile Version 2.0
sampleSurface
ASCII
DATASET POLYDATA
POINTS 3098 float
0.746192 0 -5.00894e-05 -6.50534 1.11022e-16 -4.7391e-05 0.739507 0 7.49995 7.99812 0
1.94289e-05 -6.5124 -1.11022e-16 7.49992 7.99235 -1.11022e-16 7.50019 -13.7546 0 -1.50031e-05
0.734852 -1.11022e-16 14.9998 15.2496 -1.11022e-16 6.60617e-05 -13.7602 0 7.49982 -6.51784
-1.11022e-16 14.9998 15.2414 -1.11022e-16 7.50009 7.98685 0 14.9998 -13.7648 0
14.9999 -20.9938 0 4.36099e-06 15.2348 -1.11022e-16 14.9998 -20.9936 2.22045e-16 7.49977
22.5022 0 1.49541e-05 0.735071 0 22.4998 -6.51815 -1.11022e-16 22.4999 22.4915
0 7.49989 7.98745 -1.11022e-16 22.4998 -20.9933 -1.11022e-16 14.9999 -13.7652 1.11022e-16
22.4999 22.4829 -1.11022e-16 14.9998 15.2356 0 22.4998 -28.2515 0 2.62893e-05
-28.2534 0 7.50012 29.7556 -1.11022e-16 -4.54549e-05 0.735819 1.11022e-16 29.9999 29.7426
0 7.4992 -6.51767 0 29.9999 -20.9933 -1.11022e-16 22.5 7.98856 0
29.9999 22.4839 1.11022e-16 22.4999 -28.255 0 15 -13.7649 0 30
29.7256 0 14.9997 15.237 0 29.9999 -35.5072 -1.11022e-16 5.90779e-05 -28.2551
0 22.5 -35.5123 1.11022e-16 7.50007 -20.993 1.11022e-16 30 36.9932 0
-7.53554e-05 29.7252 1.11022e-16 22.4999 22.4857 -1.11022e-16 29.9999 0.736256 -1.11022e-16 37.5
37.0663 -1.11022e-16 7.5 -6.5174 0 37.5 7.98913 1.11022e-16 37.5 -35.5169
-2.22045e-16 15 36.9578 0 14.9999 -13.7648 0 37.5 15.2378 0
37.5 -28.255 0 30 -35.5174 0 22.5 29.7273 -1.11022e-16 30
-42.7594 0 0.000106246 -20.9929 1.11022e-16 37.5 36.9398 -3.33067e-16 22.4999 -42.765
0 7.50013 22.4866 -1.11022e-16 37.5 44.3067 1.11022e-16 -0.000173064 44.3156 -5.55112e-17
3.74923 44.3638 -1.11022e-16 7.50044 0.736588 -1.11022e-16 45 -42.7692 2.22045e-16 15.0001
-6.51713 0 45 7.98959 0 45 -35.5174 0 30 44.2537
1.11022e-16 14.9995 -28.2549 0 37.5 -13.7646 -2.22045e-16 45 15.2384 1.11022e-16
45 36.9405 0 30 29.7284 0 37.5 47.8983 5.55112e-17 -0.000231375
47.9106 0 3.74943 -42.7696 1.11022e-16 22.5 48.0131 0 7.50081 44.229
-2.22045e-16 22.4999 -20.9927 -1.11022e-16 45 -50 -1.11022e-16 0.000116555 22.4873 -1.11022e-16
45 -50 -1.11022e-16 7.50012 51.4805 0 -0.000354952 -35.5173 1.11022e-16 37.5
51.6484 5.55112e-17 3.75115 -50 -2.22045e-16 15.0001 51.6711 0 7.50084 -42.7696
0 30 0.736735 -1.11022e-16 52.5 36.9419 0 37.5 51.4953 -1.11022e-16
11.2492 -6.51706 0 52.5 7.98975 0 52.5 -28.2549 0 45
44.2289 -1.11022e-16 30 51.37 -5.55112e-17 14.9994 29.729 -1.11022e-16 45 -13.7646
0 52.5 51.3052 -2.1684e-19 18.7496 51.3048 -2.60209e-18 18.8318 15.2386 -2.22045e-16
52.5 51.3708 -2.38524e-18 18.7496 -50 1.11022e-16 22.5 54.9985 0 -0.00260162
55.0346 0 1.87535 55.1369 0 3.75138 55.3085 5.55112e-17 7.50038 51.2883
-5.55112e-17 22.4998 55.0461 -5.55112e-17 11.249 -20.9927 0 52.5 56.7456 0
0.0299735 56.7783 -2.77556e-17 1.87544 -42.7696 0 37.5 54.8698 0 14.9993
56.8619 2.77556e-17 3.75216 22.4876 1.11022e-16 52.5 -35.5173 -1.11022e-16 45 54.8229
0 17.1162 51.2808 6.93889e-18 26.2499 55.7413 -6.93889e-18 14.9994 54.8037 0
18.7496 44.2298 -1.11022e-16 37.5 36.9422 -2.22045e-16 45 -50 0 30
58.4645 0 -0.244693 58.5154 0 1.88535 58.9168 0 -0.257294 58.9375
1.38778e-17 1.84572 58.8346 1.38778e-17 4.04008 59.1468 -3.46945e-18 1.82581 59.2027 0
-0.270676 59.0815 0 3.9148 54.7907 0 22.4998 59.2532 0 -0.267831
59.2573 0 1.824 58.2324 -1.38778e-17 11.2624 59.254 0 3.02719 58.004
1.38778e-17 12.6256 59.2576 -3.46945e-18 3.82483 51.283 -6.245e-17 30 57.6498 2.77556e-17
14.9995 -28.2548 1.11022e-16 52.5 59.2774 -2.77556e-17 7.62697 58.8187 2.77556e-17 11.263
58.0011 -1.38778e-17 14.9995 0.736891 0 60 58.3071 0 14.9994 29.7293
1.11022e-16 52.5 59.2786 -2.77556e-17 11.2636 -6.5169 0 60 57.4289 2.77556e-17
18.7498 7.98997 -1.11022e-16 60 58.8533 5.55112e-17 14.9994 54.7868 1.249e-16 26.2499
58.0003 -1.38778e-17 18.7498 58.1668 0 18.7498 59.2769 -2.77556e-17 14.9994 51.2799
6.93889e-18 33.75 -13.7644 0 60 57.3667 0 22.4999 58.7945 0
18.7497 15.2389 1.11022e-16 60 -42.7696 -1.11022e-16 45 59.2786 -2.77556e-17 18.7497
57.9997 2.77556e-17 22.4999 58.1285 -6.245e-17 22.4999 54.7871 0 30 -50
0 37.5 58.7775 2.77556e-17 22.4999 57.3544 0 26.25 44.2301 -1.11022e-16
45 -35.5173 -2.22045e-16 52.5 59.2769 0 22.4998 51.283 -6.93889e-18 37.5
-20.9926 1.11022e-16 60 58.0001 0 26.25 58.1216 0 26.25 22.4878
1.11022e-16 60 36.9426 0 52.5 54.7861 -8.32667e-17 33.75 58.7756 0
26.25 57.3526 -1.66533e-16 30 59.2786 0 26.25 57.9997 -2.08167e-17 30
58.1203 2.08167e-17 30 51.28 0 41.25 58.7742 -5.55112e-17 30 -28.2547
0 60 54.7871 0 37.5 59.2769 0 30 57.3525 0
33.75 29.7295 0 60 58.0002 0 33.75 58.1205 -6.93889e-18 33.75
-50 0 45 0.736925 0 67.5 -42.7695 0 52.5 58.7752
-2.77556e-17 33.75 -6.5169 3.33067e-16 67.5 7.98998 -1.11022e-16 67.5 59.2786 2.77556e-17
33.75 51.2831 -3.46945e-17 45 57.3524 5.55112e-17 37.5 54.7862 1.38778e-17 41.25
44.2303 1.11022e-16 52.5 -13.7644 0 67.5 57.9998 0 37.5 58.1202
4.16334e-17 37.5 15.2389 -1.11022e-16 67.5 58.7741 0 37.5 -35.5171 1.11022e-16
60 59.2769 0 37.5 36.9425 0 60 57.3524 -5.55112e-17 41.25
-20.9926 -1.11022e-16 67.5 51.2801 -6.93889e-18 48.75 54.787 0 45 22.4878
2.22045e-16 67.5 58.0002 6.93889e-18 41.25 58.1204 0 41.25 58.7752 -2.77556e-17
41.25 59.2786 -2.77556e-17 41.25 -50 0 52.5 57.3524 0 45
-28.2547 1.11022e-16 67.5 54.7862 -2.77556e-17 48.75 51.2831 -6.245e-17 52.5 57.9998
6.93889e-18 45 58.1202 -6.93889e-18 45 -42.7695 -1.11022e-16 60 29.7296 0
67.5 58.7741 2.77556e-17 45 59.2769 0 45 44.2304 -2.22045e-16 60
0.737014 0 75 57.3524 0 48.75 -6.51679 -1.11022e-16 75 7.99012
-2.22045e-16 75 58.0002 -6.93889e-18 48.75 58.1204 0 48.75 54.787 -1.38778e-17
52.5 51.2801 0 56.25 -13.7644 0 75 -35.5171 -1.11022e-16 67.5
58.7752 2.77556e-17 48.75 15.239 0 75 59.2786 2.77556e-17 48.75 36.9428
2.22045e-16 67.5 57.3524 0 52.5 -20.9926 1.11022e-16 75 -50 -1.11022e-16
60 57.9998 6.93889e-18 52.5 22.4879 0 75 58.1202 -6.93889e-18 52.5
54.7862 -1.38778e-17 56.25 58.7741 2.77556e-17 52.5 51.2831 -1.38778e-17 60 59.2769
-2.77556e-17 52.5 -42.7695 0 67.5 -28.2547 1.11022e-16 75 57.3524 0
56.25 29.7296 0 75 44.2304 -1.11022e-16 67.5 58.0002 2.08167e-17 56.25
58.1204 6.93889e-18 56.25 54.7871 0 60 58.7752 2.77556e-17 56.25 59.2786
2.77556e-17 56.25 51.2801 0 63.75 0.737004 -1.11022e-16 82.5 -6.51683 0
82.5 7.99007 1.11022e-16 82.5 -35.5171 0 75 57.3524 0 60
57.9998 1.38778e-17 60 58.1202 4.85723e-17 60 36.9426 1.11022e-16 75 -13.7644
1.11022e-16 82.5 15.239 -2.22045e-16 82.5 58.7741 2.77556e-17 60 -50 2.22045e-16
67.5 54.7862 -2.77556e-17 63.75 59.2769 -2.77556e-17 60 51.2831 -6.245e-17 67.5
-20.9926 -1.11022e-16 82.5 22.4879 1.11022e-16 82.5 57.3524 0 63.75 58.0002
6.93889e-18 63.75 58.1204 6.93889e-18 63.75 -42.7695 0 75 58.7752 -2.77556e-17
63.75 54.787 0 67.5 59.2786 2.77556e-17 63.75 44.2304 0 75
-28.2547 -1.11022e-16 82.5 29.7297 0 82.5 51.2801 0 71.25 57.3524
0 67.5 57.9998 1.38778e-17 67.5 58.1202 4.85723e-17 67.5 58.7741 2.77556e-17
67.5 -35.5171 0 82.5 59.2769 -2.77556e-17 67.5 54.7862 -6.93889e-17 71.25
0.737067 -1.11022e-16 90 -50 -1.11022e-16 75 -6.51675 -1.11022e-16 90 7.99018
1.11022e-16 90 36.9429 2.22045e-16 82.5 51.2831 1.17961e-16 75 -13.7643 0
90 15.239 -1.11022e-16 90 57.3524 0 71.25 58.0002 6.93889e-18 71.25
58.1204 6.93889e-18 71.25 58.7752 -2.77556e-17 71.25 -20.9925 1.11022e-16 90 59.2786
2.77556e-17 71.25 22.488 1.11022e-16 90 54.7871 0 75 -42.7695 0
82.5 44.2305 0 82.5 51.2801 -6.93889e-18 78.75 -28.2547 -2.22045e-16 90
57.3524 0 75 29.7297 -1.11022e-16 90 57.9998 1.38778e-17 75 58.1202
4.85723e-17 75 58.7741 2.77556e-17 75 59.2769 -2.77556e-17 75 54.7862 0
78.75 -50 0 82.5 -35.5171 1.11022e-16 90 51.2831 -1.80411e-16 82.5
36.9427 1.11022e-16 90 57.3524 0 78.75 0.737038 0 97.5 -6.5168
0 97.5 58.0002 6.93889e-18 78.75 7.9901 -1.11022e-16 97.5 58.1204 6.93889e-18
78.75 58.7752 -2.77556e-17 78.75 -13.7644 2.22045e-16 97.5 59.2786 2.77556e-17 78.75
15.239 0 97.5 54.787 -1.38778e-17 82.5 -42.7695 -1.11022e-16 90 -20.9926
-1.11022e-16 97.5 22.4879 0 97.5 44.2304 1.11022e-16 90 51.2801 0
86.25 57.3524 0 82.5 57.9998 -6.93889e-18 82.5 58.1202 4.85723e-17 82.5
58.7741 2.77556e-17 82.5 -28.2547 0 97.5 59.2769 -2.77556e-17 82.5 29.7297
1.11022e-16 97.5 54.7862 1.38778e-17 86.25 -50 0 90 57.3524 0
86.25 51.2831 -6.93889e-18 90 -35.5171 -1.11022e-16 97.5 58.0002 1.38778e-17 86.25
58.1204 6.93889e-18 86.25 36.9429 2.22045e-16 97.5 58.7752 -2.77556e-17 86.25 59.2786
2.77556e-17 86.25 0.73709 -1.11022e-16 105 -6.51673 0 105 7.9902 -1.11022e-16
105 54.7871 0 90 -13.7643 0 105 15.239 1.11022e-16 105
-42.7695 -1.11022e-16 97.5 57.3524 0 90 51.2801 0 93.75 44.2305
1.11022e-16 97.5 57.9998 1.38778e-17 90 -20.9925 2.22045e-16 105 58.1202 4.85723e-17
90 22.4881 0 105 58.7741 2.77556e-17 90 59.2769 -2.77556e-17 90
54.7862 0 93.75 -28.2547 0 105 29.7297 0 105 -50
-1.11022e-16 97.5 57.3524 0 93.75 51.2831 -1.04083e-16 97.5 58.0002 6.93889e-18
93.75 58.1204 6.93889e-18 93.75 58.7752 -2.77556e-17 93.75 -35.5171 0 105
59.2786 2.77556e-17 93.75 36.9427 -1.11022e-16 105 54.787 1.38778e-17 97.5 0.737054
-1.11022e-16 112.5 -6.51679 2.22045e-16 112.5 7.99012 -1.11022e-16 112.5 57.3524 0
97.5 -13.7644 0 112.5 -42.7695 0 105 57.9998 1.38778e-17 97.5
51.2801 -6.93889e-18 101.25 58.1202 4.85723e-17 97.5 15.239 -1.11022e-16 112.5 58.7741
2.77556e-17 97.5 44.2305 1.11022e-16 105 59.2769 -2.77556e-17 97.5 -20.9926 1.11022e-16
112.5 22.4879 -1.11022e-16 112.5 54.7862 0 101.25 -28.2547 0 112.5
-50 2.22045e-16 105 29.7297 0 112.5 57.3524 0 101.25 58.0002
1.38778e-17 101.25 58.1204 6.93889e-18 101.25 51.2831 2.08167e-17 105 58.7752 -2.77556e-17
101.25 59.2786 2.77556e-17 101.25 -35.5171 -2.22045e-16 112.5 36.9429 1.11022e-16 112.5
54.7871 0 105 57.3524 0 105 57.9998 1.38778e-17 105 0.737101
-1.11022e-16 120 58.1202 4.85723e-17 105 -6.51672 0 120 51.2801 6.93889e-18
108.75 7.99022 -1.11022e-16 120 58.7741 2.77556e-17 105 -42.7695 0 112.5
59.2769 -2.77556e-17 105 -13.7643 -1.11022e-16 120 44.2305 0 112.5 15.239
-1.11022e-16 120 54.7862 -2.77556e-17 108.75 -20.9925 0 120 22.4881 0
120 57.3524 0 108.75 -50 0 112.5 58.0002 6.93889e-18 108.75
[...]
POINT_DATA 3098
FIELD attributes 2
p 1 3098 float
8.62908 8.41643 8.99178 9.02261 8.78202 9.35652 8.23848 8.8428 9.63878 8.62094 8.64773
10.0092 9.26484 8.51507 7.78759 9.87973 8.18178 10.4481 8.68793 8.48963 10.8707
9.08738 8.11832 8.34028 10.6783 9.68193 7.48788 7.85129 11.6705 8.65 12.1101
8.45592 7.94896 9.03821 10.4512 7.82787 8.30224 11.8283 9.62494 7.67208 7.68751
7.98226 7.90215 12.9075 11.4378 10.3876 8.63651 13.1193 8.44605 9.02168 7.97637
13.152 8.28986 9.60705 7.64068 7.87181 11.3942 8.04338 7.88358 12.3623 8.28175
10.3637 15.1436 14.4782 14.6834 8.62592 8.29489 8.43937 9.01026 7.83627 14.6325
7.61977 8.28178 9.59649 12.3249 11.3795 16.7065 15.223 8.229 15.3731 13.421
7.87174 8.24448 10.3509 8.42742 16.9315 7.81922 14.8512 8.44437 15.9147 8.20539
8.62306 12.3396 17.0912 8.44096 9.00723 7.60568 13.404 15.4919 11.3619 8.28468
14.1415 14.1381 9.59457 14.1458 8.39657 15.4123 14.1161 14.2628 15.7932 13.9942
17.4866 7.87263 14.4414 12.9708 8.19152 15.766 12.3887 10.351 7.80583 14.9887
14.0657 15.5526 14.3721 13.4521 12.3236 8.37732 13.4034 10.4192 12.1554 9.14114
8.89974 8.35487 11.62 7.54208 14.0651 11.6471 8.22973 16.4695 6.86442 16.2065
6.26217 14.1807 15.036 7.60274 13.1528 13.9739 14.0767 8.62345 12.8607 11.3632
13.3101 8.44431 13.7015 9.0074 12.1337 14.1389 12.6683 12.1877 11.3472 14.2469
8.29007 13.4277 11.1 9.59564 8.17937 10.2723 12.3986 12.0495 14.2032 8.36304
10.9148 13.4928 13.4458 7.80004 10.0554 14.2583 7.87757 12.4869 12.1762 10.3547
12.3273 14.2851 11.1005 13.544 10.2815 12.5509 12.2367 14.2439 11.1225 7.60444
14.3138 10.2732 13.618 11.3712 12.6103 12.3002 8.35076 8.6244 8.17277 11.2097
8.44619 9.00812 10.3799 14.269 13.6724 14.3325 13.4638 8.29373 12.6705 12.3502
9.59727 11.211 7.79834 10.3435 12.3429 13.7015 7.88157 14.2898 14.3716 10.3591
12.6951 12.3822 11.2804 10.4405 8.34382 13.7619 7.60638 14.4233 14.3337 12.7614
12.4392 8.16979 11.379 11.2949 10.4217 13.4966 8.62504 13.8155 8.44659 9.00849
12.8079 12.493 14.4769 14.3652 8.29517 7.79794 11.3896 9.59824 10.5465 12.3596
13.8841 7.88356 8.3404 12.8812 10.3623 12.5567 14.529 11.4097 14.4066 10.5328
8.16847 7.60723 13.9337 11.3838 13.5256 12.9235 12.6069 14.5739 11.5029 10.6585
14.4309 8.62545 8.44666 9.00884 7.79766 13.9889 12.9824 12.6566 12.3703 8.29549
9.59907 11.5101 8.33871 14.61 10.6333 14.4572 7.88418 10.3646 14.0196 13.006
12.6883 8.16775 11.5851 14.639 10.7408 13.543 7.60731 11.3885 14.4689 14.0581
13.0484 12.7216 11.5759 7.79744 10.6992 14.6612 8.6259 8.33772 8.44705 9.00959
12.3799 14.4858 8.29579 9.6002 14.074 13.0562 12.7375 11.6353 7.88432 10.7915
10.3668 14.6805 8.16734 13.5566 14.4904 7.60708 14.1017 11.3935 13.0863 12.758
11.612 10.7348 14.695 8.33719 7.7973 14.5007 12.389 14.1088 8.62634 8.44773
13.0842 9.01073 12.7637 11.6594 8.29624 10.814 9.60197 14.7069 8.16704 7.88432
10.3688 13.5681 14.5026 14.1294 13.1079 12.7777 11.629 7.60686 10.7497 11.3978
14.7178 8.33681 14.133 14.5122 7.79727 13.1031 12.7808 12.3971 11.6741 10.8266
8.62678 8.44847 9.01203 14.7275 8.29675 9.60413 8.16691 14.1512 14.5132 13.5786
13.1253 7.88426 12.7935 10.371 11.6421 10.7606 14.7364 7.6067 11.4014 8.33662
14.1531 14.5211 13.1199 12.7962 11.687 7.79732 10.8374 12.4035 14.7437 8.62721
8.4492 9.01326 14.1696 8.29731 8.16687 13.1419 14.5199 12.809 9.60639 11.6562
13.5866 10.7732 7.88435 10.373 14.7497 7.60666 8.33655 11.4041 14.168 13.1332
12.8086 14.5276 11.6985 10.848 7.79739 12.4086 14.7551 14.1822 13.153 8.62765
12.8194 8.44975 14.5259 9.01423 11.6653 8.16689 10.7813 8.29771 13.5939 9.60823
14.759 7.88446 10.3746 14.179 8.33657 13.1443 7.60668 12.8195 11.7097 11.4057
14.5331 10.8592 14.7623 7.79742 12.4119 14.1905 13.1619 12.8282 11.6753 14.5299
10.792 8.16686 8.62815 8.4502 9.01512 13.5986 8.29801 9.60978 14.7638 7.8846
10.376 14.1843 13.1503 12.8256 8.33658 11.7171 10.8676 14.5357 7.60673 11.4065
14.7646 7.79741 12.4135 14.1928 13.1649 12.8314 11.6801 10.798 14.5305 8.16681
13.6008 8.6285 8.45037 9.01584 14.7635 8.29809 9.61086 14.184 7.88467 13.1512
12.8268 10.3768 8.33656 11.7203 10.8722 14.535 7.60675 11.4066 14.7618 7.79733
14.1899 12.4133 13.1635 12.8305 11.6817 10.8012 14.529 8.16669 13.6011 14.7596
8.62864 8.45042 9.01623 8.29809 14.1793 9.61148 13.1475 12.8236 11.7194 8.33649
10.8729 7.88467 10.3773 14.5335 7.6067 11.4063 14.7576 14.1847 7.79721 13.1591
12.8266 12.4122 11.68 10.8011 -7.02167 -7.04206 14.5276 -6.84118 -6.68164 -6.99359
-6.68186 -7.00398 8.16656 -6.82406 -6.66866 -6.75252 14.7558 13.6002 -6.65701 -6.80698
-6.95698 -6.95345 -6.95481 -6.95048 -6.80191 -6.71625 -6.80049 8.6286 -6.65166 -6.6507
14.1744 8.45031 -6.82308 9.01643 -6.76204 -6.62329 13.1432 -6.62202 12.8196 8.29795
11.7173 9.61173 -6.66709 -6.66557 -6.82261 10.8719 -6.77494 8.33639 -6.67996 -6.66556
-6.7009 -6.69911 -6.55115 14.5318 7.8846 -6.77133 -6.42753 -6.8147 10.3773 -6.7091
-6.70718 -6.39124 -6.41559 -6.7596 -6.48446 -6.46867 -6.80267 -6.70085 -6.69878 7.60662
-6.3761 14.7537 -6.28246 -6.43612 11.4057 -6.23942 -6.74359 -6.6837 -6.68147 -6.78989
-6.43898 14.18 -6.25646 13.155 12.8229 -6.26415 11.6781 7.79704 -6.42616 -6.72699
-6.66219 -6.6598 10.8004 -6.16314 -6.14094 12.4107 -6.07441 -6.78226 -6.26943 -5.99807
-6.40393 14.525 -5.96555 -6.64035 -6.63781 -6.71575 -6.24832 -5.97254 -6.7814 -6.37615
-5.98317 8.16636 -6.22804 14.7514 -6.62433 -6.62165 13.5985 -6.71152 -5.98444 -6.34726
-5.7844 -5.76273 -6.78781 -5.71843 -6.19045 14.1694 -5.66587 -5.97119 13.1386 -6.61564
12.8154 -6.61283 -5.63912 8.6284 11.7146 -6.71451 8.45009 9.01642 -6.32262 10.8703
-5.64035 -6.16176 -5.94733 8.29773 8.3362 -6.79948 9.61173 -5.64843 14.5296 -6.61414
-6.61121 -5.9147 7.88444 -6.7226 -6.30477 -5.65117 -6.12528 10.3771 -6.819 -5.64106
14.7498 -5.87945 -6.61757 -6.61451 7.60644 -6.10606 -6.29276 -5.03675 -6.73878 11.405
-5.02266 -5.61908 -4.99854 14.1753 -4.97028 -5.8448 13.1507 12.8188 -4.95494 -6.84457
11.6754 -5.58668 -6.62953 -6.62637 -6.08019 10.7985 -4.95532 -6.28531 7.79683 -6.76175
12.4092 -4.96307 -5.81525 14.5233 -5.54987 -4.9694 -6.07023 -6.87743 -6.64933 -6.64609
-6.2854 -5.78821 -4.9676 -5.51171 8.16613 14.7481 -6.7927 13.5966 -4.95556 -6.0551
-4.1159 -4.11223 -4.10312 14.165 -6.91496 -6.29344 -6.67809 -6.6748 -5.4765 -5.76487
-4.09209 13.1341 12.811 -4.08763 -4.93354 11.7112 10.8675 -6.82892 -4.09239 8.62805
8.44973 9.0162 8.33596 -6.06031 -5.44189 -4.10348 -4.90532 8.29741 -5.74599 -6.31012
14.5277 9.61147 -6.71297 -6.70966 -6.95419 -4.11583 7.88418 -4.87393 -6.86741 10.3768
-5.40958 -4.1248 -6.06098 14.747 -5.73451 -6.33383 -4.12703 -6.75092 -6.74761 7.60617
-6.99503 -4.84197 -3.40286 -3.40721 14.172 11.4041 -3.40792 13.1472 -5.37989 12.8155
-3.4076 11.6727 -4.12089 -6.90795 -3.41071 10.7963 -6.08256 -5.72929 -3.4193 -4.80711
7.79654 -6.36149 -4.10829 -3.43289 -6.79147 12.4077 -6.78816 14.5214 -5.35605 -7.03771
-3.44879 -4.77207 -6.09507 -4.09173 -6.95076 -5.73145 -3.46419 14.7464 8.16582 -6.39277
-5.33681 13.5948 -6.83489 -6.83161 -3.47518 -4.07204 -4.73736 14.1633 -2.73047 -7.08055
-2.74026 -2.74709 13.1321 12.8092 -2.75337 -5.73813 -6.12633 11.7099 -3.47952 10.8664
-2.76149 -6.99406 -4.04686 -2.77334 -5.32386 -6.42768 8.33564 -4.70572 8.62757 -3.47791
8.44929 -2.78864 9.01575 -6.87921 -6.87597 14.5267 8.29702 -7.12244 -2.80644 9.61102
-5.75026 -4.01966 -6.147 -3.47291 -7.03666 7.88383 -2.82561 -5.3158 14.7468 -4.67489
10.3762 -6.46446 -2.8422 -3.46389 -3.99131 -6.92313 -6.91993 14.1717 -2.24456 7.60582
-2.25744 13.1459 12.8141 -2.26788 -5.76603 11.4033 -7.16179 -2.27783 11.6712 -6.18561
-2.85411 10.7946 -4.64772 -2.28873 -5.31354 -3.44917 -7.077 -2.30229 -3.96363 -6.50203
-2.86132 7.79618 -2.31798 14.5216 12.4066 -6.96513 -6.96198 -3.43164 -2.33626 -5.78517
-4.6249 -2.86622 -6.21029 -7.19959 -5.31503 -3.93321 -2.35658 14.7476 8.16546 -7.11601
-6.5388 -3.41276 -2.86706 -2.37547 13.5938 14.1648 -1.73342 -1.74885 13.133 12.8099
-1.76212 -4.60637 -7.00604 -7.00295 -5.80677 11.7104 -3.90401 -1.77447 -2.3909 10.8666
-5.31992 -6.25109 -1.78744 -2.86277 -7.23617 -3.393 -1.80219 -2.40284 8.33526 -1.8182
-7.1541 -6.5755 14.5275 8.627 8.44876 -2.85532 9.01519 -3.87694 -4.58918 -1.83643
-2.41313 8.29657 -5.8297 -3.36937 9.61047 -7.04645 -7.04343 -5.32882 -1.85675 -6.27621
14.7491 7.88341 -7.27131 -2.8468 10.3757 -2.41988 -1.87648 14.1742 -3.85118 -7.19102
13.1479 -4.57537 -6.6125 12.8159 -3.34513 -1.30417 -1.3209 7.60541 11.6728 -1.33577
-1.89371 10.7959 11.4025 -1.3494 -2.42228 -5.8537 -2.83637 -5.33972 -1.36325 -7.08603
-7.08308 -6.3189 -1.37861 -1.90847 7.79576 -3.82382 -1.39506 -7.30462 14.5233 -3.32068
-2.42182 12.4059 -4.56548 -1.92237 -1.41338 -2.82197 -6.64996 -7.22632 -1.43336 14.7509
-5.87936 -5.35278 -2.42066 -1.93355 -7.12421 -7.12135 8.16501 -6.34611 -3.29586 -3.79886
-1.45318 14.1683 13.5935 -2.80561 13.1359 12.8127 -4.5585 -0.914843 -0.931843 -7.33663
11.7128 -0.947347 -1.47124 -1.94131 10.8687 -2.41738 -0.961853 -6.68689 -0.976281 -7.26042
-5.3678 -0.992061 -5.90729 -1.48756 -3.26861 8.33479 -2.78743 -3.77674 -1.94669 -1.00909
14.5297 -7.1613 -7.15852 -6.39056 -2.41035 8.62631 -1.02774 -1.50336 -4.55299 8.44811
9.01446 8.29599 -7.36673 9.60982 -1.04753 14.7532 -1.95195 -2.768 -3.24243 -6.72381
-1.51708 7.88287 -7.29262 -5.38681 -2.40092 -1.06731 -5.93652 -3.75733 10.3752 14.1786
13.1515 12.8194 -0.356625 -0.373302 11.6759 -1.95526 -0.388997 -1.08584 -7.19651 -6.41851
-7.19381 10.7987 -1.52809 -4.55014 -0.403145 7.60489 11.402 -0.416764 -2.74601 -2.38975
-3.21778 -0.431526 -1.10331 -7.39412 -1.53722 -0.447806 -3.73675 -1.95527 -6.7593 14.5259
-5.4077 7.79525 -5.96714 -7.32215 -0.465954 -1.12044 12.4057 -4.55185 -0.484875 -2.72392
-2.37716 -6.46283 -1.54642 14.7552 -7.22909 -7.22647 -3.19388 -1.13597 -1.95287 -0.504024
8.1645 14.1729 13.5934 -3.71889 13.1397 12.8162 -7.41883 -0.179417 -0.194161 11.716
-1.55395 -0.522403 -5.43138 -1.14945 -0.207407 -6.79313 10.8716 -0.218469 -5.9977 -2.36193
-2.70129 -7.34897 -0.229038 -1.94938 -4.55663 -0.540321 -0.240332 -3.16665 -6.48857 -1.16164
8.33426 -7.25889 -7.25636 -0.25369 -1.55868 14.5312 -0.557864 -3.70528 -0.269259 -2.34566
-1.94437 8.62546 8.44732 -2.67738 9.01355 -1.17395 -5.45548 -0.285359 -7.44142 14.7563
-6.82456 -0.574196 8.29527 -6.02815 -1.5614 9.60895 -3.14113 -0.301848 -4.56406 -7.37366
14.1822 7.8822 13.1547 10.3744 12.8224 -1.18476 -6.52996 -0.588799 -0.318219 -0.0771825
11.6786 -1.93682 -0.126141 -7.28649 -2.32793 -7.28403 -0.101329 10.801 -3.69446 -0.14875
-1.5637 -2.64937 7.60426 -0.120689 -0.334694 11.4013 -0.167412 -5.48125 -0.60277 -1.19327
-7.46175 -3.11953 -0.141338 -6.85445 -6.05759 -4.57319 14.5263 -0.350605 -1.92769 7.79464
-0.192862 -7.39595 -2.30852 -1.56454 12.4052 -0.6167 -6.55255 -0.168251 -3.68545 -2.62157
-1.20027 14.7572 -0.365775 -7.31145 -7.30906 -0.221012 8.16388 14.1755 -0.629388 -5.50642
-3.10004 -1.91701 13.142 12.8184 -0.379924 -1.56299 13.593 -0.197167 11.7179 -2.28539
-6.08669 -7.48027 -4.58516 10.8732 -6.88178 -1.20729 -0.251597 -7.41633 -2.59635 -0.393796
-3.67883 -0.64018 -6.59047 8.33363 -1.55974 -1.90465 -7.33437 -7.33205 -0.226633 14.5316
-1.21294 -3.08085 -2.26198 -0.407409 -5.53287 -0.649896 -0.280019 -4.59806 8.6245 14.7583
-6.1144 8.44645 9.01248 -6.90756 -7.49689 -2.57297 8.29449 9.6079 -3.67524 -1.55539
-0.420221 -1.21633 14.1848 -1.88907 -7.4346 -0.254664 13.1571 12.8247 7.88148 -0.659677
-6.60938 11.6805 0.162611 10.3735 10.8027 0.152141 -2.2396 -3.06383 -7.35489 -7.35262
0.144098 -0.431711 -0.308291 7.60358 -5.55844 11.4007 -1.21816 -4.61292 -1.54954 -2.54852
0.135635 -0.668145 -6.14136 -1.87276 -6.93086 14.5272 -7.51157 -3.67327 -0.281713 7.79398
-0.442533 12.4048 -2.21821 -7.45085 0.123396 -3.0494 -6.64352 14.7593 -1.21946 -0.674774
-1.54077 -0.334088 -7.37326 -7.37105 14.178 -5.58469 -2.52556 -0.453214 8.16322 -1.85631
13.1442 12.8205 -4.62839 0.1067 11.7197 13.5926 10.8749 -6.16674 -3.67315 -0.306354
-6.95243 -2.19504 -7.52505 -0.68018 -1.21933 -3.03613 -0.463033 -1.53085 -7.46575 8.33295
0.0876787 -6.65855 14.5324 -1.83972 -0.357763 -2.5043 -7.39005 -7.38789 -5.60962 -4.64584
-0.685407 -1.21657 14.76 -0.471592 -2.17234 -3.67482 8.62348 -6.19115 8.44551 9.01132
-1.52033 -0.328775 -6.97225 0.067604 8.29366 14.1869 -3.02443 9.60664 -7.53785 13.1593
12.8268 11.6826 -1.82045 0.402529 10.8047 0.421318 7.88072 0.404587 -7.47984 10.3723
-2.48381 -0.689306 -6.68934 -0.479288 0.422824 0.40941 -1.21261 -0.378904 0.429471 -5.63493
-7.40585 -7.40373 7.60286 -4.66342 -2.14986 11.3996 -1.50896 0.411565 -3.67908 0.0466233
14.5267 0.428385 -6.21437 -3.01484 -0.486967 -1.80046 -0.691173 7.79329 -6.99111 -0.348792
0.41067 12.4035 -7.54992 -1.20803 14.7597 -2.46419 0.42772 -7.4931 -6.70175 -1.49441
14.1791 -2.12803 13.1455 12.8218 0.404547 8.1625 -5.6591 -0.49355 -4.68232 11.7211
-7.42069 -7.41861 -0.39761 0.0278362 10.8763 13.5915 0.0299724 0.0258458 -0.692041 0.0306069
-3.68463 0.0323996 -1.77964 0.417591 0.035084 -3.0082 -1.20207 -6.23691 0.0371425 -7.00902
-2.44643 0.395125 0.0366324 8.33221 -7.56055 -1.47859 -0.366761 -0.49869 14.5311 0.0355158
-2.10612 -0.692375 -6.73059 0.409336 -7.50482 0.0351925 -4.70142 -5.68373 14.7595 -1.75897
0.00573902 -1.19274 -3.69149 0.0339267 -7.43382 -7.43178 0.383298 8.62212 -3.00331 8.44434
9.00975 14.1872 -0.414267 -0.502907 -6.25915 0.02951 13.1599 12.8275 8.29263 -2.43152
9.6049 11.6835 -1.46189 10.8057 -0.605572 -0.69122 -0.586458 0.394787 -7.02552 -0.60357
7.87979 0.0246189 -0.583915 -2.08587 10.3704 -7.57009 -0.600765 -0.581438 -1.18203 -6.74098
-1.73753 0.0206968 -7.51532 7.602 -0.381527 0.369629 -0.601056 -4.7224 11.3979 -5.70797
-0.506724 -3.69963 -0.0134568 14.5255 -0.58484 -2.99949 -7.44557 -7.44356 0.0165839 -1.44495
-0.687289 -0.604335 -2.41823 7.79248 0.38216 -6.28065 12.4018 14.7588 -2.06787 -0.58803
0.0100005 -0.426766 -7.04044 -1.17054 14.1787 -0.509286 -1.71708 -0.610585 13.1457 12.822
0.354259 -7.5786 8.16172 11.7215 10.8768 0.00329126 -6.76681 13.5896 -7.52468 -4.74401
-0.682016 -0.597607 -3.71043 -5.73274 -1.42708 -2.99714 0.364934 -2.40575 -0.0325893 -7.456
-7.45402 -0.392878 -0.00256988 -0.619412 -2.05069 -1.15862 8.33144 -6.30083 -0.509802 14.5297
-0.605558 -1.69805 -7.05388 -0.00838019 0.338431 -0.675858 14.7586 -7.58593 -1.40915 -0.629169
-0.43625 -6.77401 -4.76699 -3.72279 -7.53276 -2.99767 -5.75596 14.1868 -0.0161533 8.62022
8.44267 13.16 12.8276 -2.39472 9.00758 -0.509056 0.350265 -1.14557 11.6838 -0.617855
8.29116 10.8062 -2.0337 9.6024 -7.46505 -7.46309 -0.25324 -0.248163 -0.050359 -6.31943
7.8785 -1.67921 -0.242386 -0.0236924 10.3676 -0.669045 -0.640542 -0.399866 0.321461 -7.0657
-1.39112 -0.238552 7.60087 11.3951 14.5232 -0.507418 -7.5913 -3.73651 -0.0304327 -4.78933
-0.628368 -2.99998 -1.13166 -6.79631 -0.235674 -2.38663 -5.77846 -7.53881 7.79148 -2.01817
14.7573 0.331573 12.3986 -0.660947 -1.65932 -0.440061 -7.47194 -7.47 -0.652111 14.1779
-0.0370643 -6.33652 -0.234748 13.1455 12.8219 11.7219 -1.37272 8.16083 10.8776 -0.504891
-0.0667693 13.5861 0.303601 -7.07543 -1.11619 -0.641729 -0.0453612 -3.75071 -3.00356 -4.81202
-0.234554 -7.59544 -2.3804 -6.79982 -0.402221 -2.00507 -0.651528 -5.79899 8.33058 -7.54355
-1.64033 14.5258 -0.664336 0.314818 -7.47743 -7.47551 -0.501119 -1.35246 -0.0535098 -6.35171
14.755 -0.235593 -1.09966 -0.653126 14.1837 -0.440203 -7.08368 13.1574 12.8251 0.286254
-0.639952 8.61833 -3.00807 11.6818 -3.76604 8.44121 -2.37545 9.00516 10.8046 -0.061504
-4.83363 -0.0806785 0.565993 -1.99356 0.568134 8.28997 -7.59881 9.59941 -6.8184 -1.62334
-5.81856 0.571586 -0.495933 -0.676357 -7.54745 -0.237737 7.87748 -1.33236 10.3641 0.574814
0.29675 -7.48195 -7.48005 -1.08115 -0.0689981 7.59993 -0.400654 -6.36568 11.3913 14.5182
-0.627053 0.577517 -0.666675 -7.09096 -3.01442 -2.37168 7.79061 14.752 -3.78168 -1.98285
12.3947 -0.488825 -4.85526 -0.240837 -1.60752 0.268928 -0.0770702 0.579614 14.1729 -7.60075
-5.83654 -6.81955 -1.31407 13.141 12.8176 -0.6894 11.718 -0.435649 10.8741 -7.54985
-1.06244 8.16 -0.0932046 13.5817 -0.612258 -7.48491 -7.48302 0.58277 -6.37857 -0.084829
0.280048 -0.679572 -0.48017 -0.244507 -2.37041 -3.02188 -1.97348 8.32975 -3.79803 -1.59188
-7.09656 14.5204 -4.87596 -1.29695 -0.394141 0.58451 -5.85409 -1.04479 -6.83526 -7.60011
14.7494 -0.0922836 -0.701946 0.251581 -0.597207 -7.54962 14.1783 13.1524 12.8203 -0.469913
11.6775 -7.48514 -7.48326 10.8007 -6.39012 0 8.61689 8.44027 0 9.00305
-0.248976 -0.10333 -1.96659 -2.3706 0.585901 8.28932 -1.57731 0 -3.03062 9.59641
-0.425588 -0.0995307 -0.692455 -3.81449 -1.27915 0.26209 -7.09955 7.87695 -4.89669 10.3601
0 -1.02787 -0.582313 -5.87008 7.59941 -6.83221 -7.59785 14.5121 11.3866 0
-0.459307 -7.54773 -0.713794 -0.107249 0.586454 14.7459 7.78997 -0.381614 0.234296 -7.48368
12.3896 -7.48181 -6.39903 -0.25382 0 -1.96119 -1.56495 -2.37238 14.1671 -3.04017
-1.26213 13.1359 12.8127 -3.83149 11.7138 -1.00937 10.8704 8.15925 -4.9167 -7.10086
-0.567336 -0.70388 13.5759 -0.115058 0 -0.448875 -5.88406 -0.111564 0.587446 -6.84358
0.245226 -7.59478 -0.410152 8.329 -7.545 14.5131 -1.5539 -0.725002 -1.95693 0
-2.37539 -1.2467 -6.40658 -0.259488 -7.4813 -7.47944 -0.12266 -3.05109 -0.991418 14.7417
-3.84854 -0.550146 0.217426 -0.437352 -4.93545 14.1709 -7.10131 13.1458 12.8139 0.58728
11.672 -0.367064 10.7959 -5.8963 -0.715884 0 8.61425 -6.8382 8.43821 8.99941
-7.59068 -0.129764 8.28754 9.59139 -1.54347 -7.54115 -1.95388 -1.23246 7.87527 -2.38043
-0.974341 0.22848 10.3534 -0.11641 -0.533196 -3.06262 -6.41304 -7.47772 -7.47587 -0.2657
-0.423263 -3.86554 14.5034 -0.736826 7.59785 11.3785 0 -0.393978 -4.95274 0.587564
-0.137033 -7.10047 14.7366 7.78854 -5.90792 12.3808 14.1581 0.201185 -6.84725 13.1274
12.8044 -7.58452 11.7062 -1.53417 -1.21824 10.8633 -1.95289 -0.726948 -0.957791 -0.516614
-2.38635 8.15791 -7.53516 -0.408847 13.5667 0 -3.07487 -0.143961 -6.41844 -7.47185
-7.47 -0.347212 -3.88188 -0.272728 0.586643 -4.96956 8.32771 0.212556 -7.0973 14.5031
-0.746745 -0.119495 -5.918 -1.52694 -1.20504 -0.940948 -6.83829 14.7315 -0.151196 -0.499916
-1.95293 -7.57715 0 -0.394866 -2.39323 14.1611 -0.369719 13.1366 -7.5279 12.8049
-3.08703 11.6637 10.7881 0.186545 -6.42145 -0.736818 -3.89791 -7.46464 -7.46279 8.60941
8.43403 8.99317 -4.9848 0.585772 8.28356 9.58299 -0.28051 -0.157791 -7.09275 7.87148
10.3424 -0.924983 -1.19361 -1.52085 -0.482531 -5.92642 -0.380467 0 -1.95388 14.4913
-6.84342 7.59438 -0.323734 -0.756509 -2.40041 0.198923 11.3652 -7.56929 -3.09951 14.7244
-7.52012 7.7857 -0.117944 -6.42317 -0.163989 -3.91306 12.3658 14.1463 -7.45686 13.1163
-7.45501 12.7936 11.6963 10.854 -4.99908 0.583882 8.15559 -0.465961 -0.910175 -0.746672
-1.18323 -0.364944 -1.51557 -7.08764 13.5504 0.173795 -0.345598 0 -5.93294 -1.95553
-0.287691 -2.40853 -6.83269 -0.169519 8.32548 -7.56111 -3.11174 14.4861 -7.51196 -3.92772
-6.42419 -0.765463 14.7139 -7.44864 -7.44679 0.186992 -5.01169 -0.450266 -0.896173 -0.34989
14.1438 -1.1732 -0.298325 13.1202 -1.51118 12.7888 11.6488 10.7741 -0.174917 -7.08195
-1.95856 0.581834 0 -5.93933 -0.111287 -2.41687 8.60773 -6.83645 8.43305 8.98948
-0.755039 -3.1243 8.28226 -0.294905 9.57605 -7.55196 0.16474 7.86998 -7.50272 -3.94198
10.3306 -6.42455 14.4703 -0.434459 -0.335858 -0.882138 -0.318431 -0.17943 -7.43919 -7.43733
7.59294 -1.16419 -5.02413 11.3488 -1.50846 14.7029 -1.96229 -0.772767 7.78452 -7.0748
14.125 0 -5.94429 12.3484 -2.42605 13.0957 12.7732 11.6768 0.579174 10.8352
0.180359 -6.82357 -3.13722 8.15459 -7.54191 -0.183089 13.534 -3.9561 -0.320648 -0.418191
-0.273066 -7.49258 -0.869039 -6.42311 -1.15647 -0.302734 -0.101679 -0.761474 -1.5067 -7.42885
-7.42698 -5.03505 8.32442 14.4678 -1.96693 0.159743 -7.06672 -2.43597 -5.94794 14.6954
0 -0.185711 -3.15114 14.1254 -6.82457 13.1019 12.7705 -0.304608 11.6306 -0.292547
-0.402775 0.576549 10.7559 -0.778332 -7.5318 -0.856997 -3.96993 -1.14984 -7.48231 -6.42071
-1.50605 8.61333 8.43953 8.99263 -5.04469 0.176 -7.41828 -7.4164 -1.97249 8.28779
9.57393 -0.187832 7.87453 -0.310199 -2.44764 10.3187 -7.05817 14.4517 -5.95002 -0.76598
7.59751 -3.16532 -0.24513 -0.288863 11.3225 -0.388011 0 -6.81018 14.6836 -0.0905208