# vtk DataFile Version 2.0
tracks
ASCII
DATASET POLYDATA
POINTS 4740 float
-1.001 -0.05 0.0011 -0.651563 -0.040949 0.00161424 -0.302131 -0.0317269 0.00213257 0.0472969 -0.0223331
0.00265495 0.39672 -0.0127676 0.00318134 0.746186 -0.00302852 0.00371176 2.19662 0.0381186 0.00592945
3.64677 0.0882108 0.00703113 5.09655 0.14819 0.00714914 6.54617 0.211883 0.00716097 7.99846
0.279153 0.00710457 9.44895 0.349813 0.00698194 10.8993 0.424084 0.00680207 12.3494 0.501984
0.00656596 13.7993 0.583515 0.0062751 15.251 0.667871 0.00593421 16.7021 0.753693 0.0058575
18.1529 0.844247 0.00579704 19.6033 0.940992 0.00578103 21.0533 1.04398 0.00580958 22.5068
1.15357 0.00588301 22.8509 1.18105 0.0059111 23.195 1.20887 0.0059465 23.539 1.23721
0.00597682 23.883 1.26609 0.006002 24.1736 1.29093 0.00601888 25.2918 1.38797 0.00606968
26.4094 1.49018 0.00608407 27.5266 1.59759 0.00607065 28.6433 1.71025 0.00602921 29.7645
1.82872 0.00595928 31.2147 1.9888 0.00591538 32.6631 2.16327 0.0058452 34.1098 2.35231
0.00574046 35.5544 2.55606 0.00560255 37.0161 2.77932 0.00538299 38.4768 3.02017 0.00506744
39.9338 3.28237 0.00448209 41.3868 3.56596 0.00388099 42.8355 3.87063 0.00371468 43.7796
4.08357 0.00390067 45.3199 4.44633 0.00453713 46.8493 4.85206 0.00505484 48.3648 5.30721
0.00532385 49.8651 5.81032 0.00534054 51.4763 6.38574 0.00523618 51.8146 6.51395 0.00518873
52.1521 6.64437 0.00520311 52.4885 6.77749 0.00523434 52.8242 6.91235 0.00522234 53.1071
7.02636 0.00522832 54.2143 7.47344 0.00531715 55.3179 7.92913 0.00557861 56.4182 8.39301
0.00599854 57.5141 8.86707 0.00591816 58.6422 9.36891 0.00459533 58.9911 9.522 0.00418948
59.3406 9.67393 0.00390268 59.6905 9.82471 0.00373867 60.0409 9.97436 0.00369567 60.4209
10.1353 0.00377829 61.5053 10.5901 0.00441735 62.5918 11.0399 0.006287 63.6849 11.4735
0.00654102 64.7841 11.8911 0.00602349 65.8425 12.2766 0.00594965 66.37 12.4633 0.00596984
66.8994 12.6447 0.00594548 67.4305 12.8208 0.00588217 67.963 12.9928 0.00580003 68.6549
13.2111 0.00568057 69.5636 13.4893 0.00551665 70.4767 13.7531 0.00537352 71.396 13.994
0.00560609 72.3208 14.2129 0.00619943 73.1976 14.408 0.00699822 73.5528 14.4824 0.00741189
73.9083 14.5554 0.00792122 74.2641 14.6271 0.00852517 74.6201 14.6974 0.00922364 75.0463
14.78 0.0101721 75.405 14.8479 0.0110818 75.7639 14.9149 0.012079 76.123 14.981
0.0131555 76.4823 15.0462 0.0143113 76.84 15.1099 0.015539 77.5667 15.2369 0.0181368
78.2938 15.3616 0.0200827 79.0213 15.484 0.0214169 79.7491 15.6044 0.0222168 80.4736
15.722 0.0224827 81.1981 15.8375 0.0222351 81.9234 15.9483 0.0213849 82.6495 16.054
0.0203183 83.3762 16.1549 0.0192244 84.099 16.2504 0.0181091 84.1989 16.2629 0.0179675
84.2988 16.2753 0.0178445 84.3987 16.2876 0.0177282 84.4987 16.2999 0.0176185 84.6061
16.3131 0.0175079 85.2265 16.3889 0.0168302 85.8472 16.4627 0.0163713 86.4682 16.5345
0.0161257 87.0893 16.6043 0.0160932 87.7083 16.6718 0.0162728 89.1533 16.8248 0.0171541
90.5979 16.9818 0.0163624 92.0421 17.1427 0.0138947 93.4878 17.2885 0.0147878 94.9333
17.4201 0.0166952 95.6689 17.4812 0.0159022 96.4052 17.5341 0.0153752 97.1419 17.5788
0.0151298 97.8792 17.6152 0.0151941 98.6114 17.643 0.0154739 99.3425 17.6613 0.0152031
100.074 17.6705 0.0145976 100.805 17.672 0.0144979 101.537 17.6658 0.0148801 102.267
17.6517 0.0157196 103.723 17.6087 0.0182911 105.177 17.5527 0.0182036 106.632 17.4834
0.015809 108.085 17.397 0.0159592 109.544 17.2928 0.0167893 110.995 17.1713 0.0169576
112.445 17.039 0.0170563 113.894 16.8892 0.0171355 115.34 16.718 0.0172219 116.8
16.5397 0.0172029 117.332 16.4727 0.0171617 117.863 16.4051 0.0171216 118.395 16.337
0.0170846 118.926 16.2683 0.0170508 119.414 16.2047 0.0170228 119.612 16.1786 0.0170138
119.811 16.1523 0.0170208 120.01 16.1261 0.0170286 120.208 16.0997 0.0170371 120.407
16.0732 0.0170463 121.141 15.9753 0.0170262 121.875 15.8768 0.0169677 122.609 15.7778
0.0169069 123.343 15.6781 0.0168437 124.078 15.5778 0.0167781 125.524 15.3787 0.0166962
126.969 15.1703 0.0166154 128.413 14.9529 0.0165225 129.856 14.7314 0.0163953 131.31
14.5105 0.0161484 132.772 14.2705 0.0157953 134.232 14.0215 0.0154112 135.688 13.7438
0.0150133 137.135 13.4249 0.0146145 138.08 13.2034 0.014624 138.189 13.1769 0.0146475
138.297 13.1502 0.0146563 138.405 13.1234 0.0146664 138.514 13.0965 0.014678 138.623
13.0693 0.0146911 140.09 12.7003 0.0150242 141.554 12.3217 0.015284 143.016 11.9328
0.0152655 144.476 11.5351 0.0142648 145.958 11.1291 0.014667 146.455 10.9965 0.0152866
146.953 10.866 0.0158731 147.452 10.7376 0.016434 147.951 10.6115 0.0169684 148.522
10.4697 0.0175486 149.438 10.248 0.018436 150.354 10.0307 0.0195233 151.272 9.8182
0.0208285 152.194 9.62421 0.0213667 153.101 9.45063 0.0215754 154.525 9.20557 0.0214399
155.952 8.98545 0.0213293 157.383 8.79073 0.0212478 158.818 8.62205 0.0211958 160.22
8.48281 0.0211737 161.676 8.36433 0.0211796 163.133 8.26072 0.02117 164.591 8.17218
0.0211457 166.05 8.09883 0.0211065 167.5 8.04122 0.0210527 168.956 7.99962 0.0209875
170.412 7.96966 0.020935 171.868 7.95145 0.020893 173.324 7.94519 0.0208615 174.778
7.9511 0.0208407 176.236 7.97049 0.0208301 177.695 8.01107 0.0208199 179.152 8.07171
0.0208115 180.609 8.15325 0.0208049 182.071 8.25702 0.0208001 183.514 8.38236 0.0207992
184.955 8.53787 0.0208014 186.391 8.72491 0.0208042 187.823 8.94497 0.0208076 189.288
9.20726 0.0208119 190.71 9.50122 0.0208145 192.119 9.8564 0.0208162 193.511 10.2732
0.0208179 194.658 10.6724 0.0208192 196.528 11.4015 0.0208226 198.88 12.4589 0.0208269
201.155 13.6722 0.0208312 203.365 15.0003 0.020835 205.521 16.4146 0.0208384 205.906
16.6841 0.020839 206.925 17.406 0.0208405 207.948 18.1236 0.0208418 208.973 18.8373
0.020843 210 19.5475 0.0208442 211.003 20.2356 0.0208453 211.715 20.7213 0.020846
212.435 21.195 0.0208469 213.162 21.6572 0.0208478 213.896 22.1086 0.0208487 214.828
22.6645 0.0208497 216.904 23.8581 0.020851 219.02 24.9775 0.0208526 221.171 26.0302
0.0208541 223.349 27.0239 0.0208555 225.548 27.9647 0.0208567 225.879 28.0983 0.0208568
226.211 28.2302 0.0208569 226.543 28.3605 0.0208569 226.876 28.4892 0.0208569 227.252
28.6326 0.020857 229.801 29.5896 0.0208574 232.375 30.4799 0.0208577 234.97 31.3063
0.020858 237.584 32.0717 0.0208583 240 32.7218 0.0208585 -1.001 -0.05 0.0537316
-0.651572 -0.0409524 0.0542451 -0.302149 -0.0317336 0.0547626 0.0472692 -0.0223433 0.0552843 0.396683
-0.0127812 0.0558099 0.746139 -0.00304559 0.0563396 2.19657 0.0382166 0.0585525 3.64673 0.0882397
0.0596455 5.09652 0.148133 0.0597521 6.54615 0.211751 0.059751 7.99841 0.278944 0.0596816
9.4489 0.349616 0.0595499 10.8992 0.423781 0.0593648 12.3493 0.501575 0.0591233 13.7993
0.582999 0.0588271 15.2509 0.667231 0.0584808 16.702 0.753053 0.0583932 18.1529 0.843588
0.0583252 19.6033 0.940311 0.0583017 21.0533 1.04328 0.0583227 22.5067 1.15285 0.0583885
22.8565 1.18078 0.0584157 23.2064 1.20908 0.0584495 23.5562 1.23793 0.0584781 23.9059
1.26732 0.0585014 24.1998 1.29248 0.0585164 25.3127 1.38918 0.0585618 26.4251 1.49104
0.0584948 27.537 1.59805 0.0584001 28.6485 1.71026 0.0582775 29.7644 1.82823 0.0581263
31.2147 1.98833 0.0580812 32.6633 2.16265 0.0580936 34.1101 2.35154 0.058072 35.5548
2.55516 0.0580178 37.0165 2.77825 0.0578833 38.4772 3.0191 0.0575658 39.9341 3.28145
0.0569027 41.387 3.56519 0.0562249 42.8356 3.86999 0.055982 43.7727 4.08142 0.056117
45.3146 4.44445 0.0567536 46.8459 4.85003 0.0572744 48.3632 5.30512 0.057546 49.8652
5.8083 0.0575649 51.4778 6.38375 0.0574622 51.8159 6.5119 0.0574185 52.1532 6.64209
0.0574302 52.4894 6.77491 0.0574637 52.825 6.90948 0.0574542 53.11 7.02407 0.0574652
54.2169 7.47147 0.0574894 55.3205 7.9271 0.0577641 56.4206 8.39091 0.0581971 57.5164
8.86491 0.0581295 58.6439 9.36611 0.0568397 58.9934 9.51962 0.0564336 59.3434 9.67224
0.0560847 59.6938 9.8237 0.0558598 60.0448 9.97402 0.0557569 60.4226 10.1345 0.0557756
61.5067 10.5891 0.0563867 62.5929 11.0386 0.0582205 63.6855 11.4722 0.05849 64.7844
11.8897 0.0579846 65.8425 12.2751 0.057922 66.3707 12.4621 0.0579064 66.9007 12.644
0.0577902 67.4326 12.8206 0.0576357 67.9657 12.993 0.0574631 68.6564 13.2111 0.0572281
69.5648 13.4893 0.0570624 70.4775 13.7533 0.0569311 71.3964 13.9945 0.0571753 72.3208
14.2137 0.0577802 73.1976 14.4091 0.0585902 73.5514 14.4832 0.0590208 73.9055 14.5559
0.0595537 74.2598 14.6272 0.0601805 74.6144 14.6972 0.060901 75.0416 14.7799 0.0618812
75.4013 14.8481 0.0628112 75.7612 14.9152 0.0638713 76.1212 14.9813 0.0650111 76.4815
15.0465 0.0662308 76.84 15.1103 0.067522 77.5667 15.2373 0.0700812 78.2938 15.362
0.0719199 79.0213 15.4844 0.073147 79.7491 15.6048 0.0738402 80.4736 15.7224 0.0740003
81.1986 15.838 0.0736739 81.9243 15.9495 0.0724796 82.6508 16.0559 0.0710709 83.3779
16.1576 0.0696371 84.0989 16.2535 0.0681905 84.1942 16.2654 0.0680551 84.2896 16.2772
0.0679737 84.3851 16.2889 0.0678983 84.4805 16.3005 0.0678139 84.5853 16.3134 0.06771
85.2099 16.3898 0.0670183 85.8348 16.4641 0.0665629 86.4599 16.5363 0.0663237 87.0852
16.6066 0.0663004 87.7083 16.6745 0.066492 89.1533 16.8274 0.0673089 90.5979 16.9843
0.0665607 92.0421 17.1451 0.0641356 93.4878 17.291 0.0650009 94.9334 17.4227 0.066867
95.669 17.4838 0.0660605 96.4051 17.5373 0.0655559 97.1419 17.5824 0.0653315 97.8791
17.6193 0.0654152 98.6113 17.6476 0.0657264 99.3425 17.6659 0.0654559 100.074 17.6746
0.0648102 100.805 17.6757 0.0646691 101.537 17.6689 0.0650089 102.267 17.6545 0.0658047
103.723 17.6114 0.0684028 105.178 17.5554 0.0683473 106.632 17.4861 0.0659684 108.085
17.3997 0.0661349 109.544 17.2956 0.0669338 110.995 17.1741 0.0671001 112.445 17.0416
0.0671934 113.893 16.8917 0.0672669 115.339 16.7204 0.0673469 116.799 16.5422 0.0673205
117.342 16.4738 0.0672948 117.884 16.4048 0.0672634 118.427 16.3353 0.0672354 118.97
16.2651 0.0672108 119.467 16.2002 0.0671914 119.655 16.1755 0.0671898 119.843 16.1507
0.0672423 120.031 16.1258 0.0672995 120.219 16.1008 0.0673575 120.407 16.0758 0.0674163
121.141 15.9779 0.0674231 121.875 15.8794 0.0672851 122.609 15.7804 0.0671446 123.342
[...]
POINT_DATA 4740
FIELD attributes 4
age 1 4740 float
0 0.906194 1.81253 2.71901 3.62562 4.5325 8.29707 12.061 15.8325 19.6082 23.3952
27.1818 30.9748 34.7741 38.5796 42.3968 46.2184 50.0513 53.8946 57.7479 61.6216
62.5414 63.4624 64.3842 65.3067 66.0868 69.0909 72.104 75.1261 78.1571 81.2108
85.1706 89.1516 93.1533 97.1752 101.256 105.344 109.456 113.584 117.713 120.411
124.819 129.192 133.508 137.762 142.241 143.16 144.074 144.981 145.877 146.63
149.565 152.458 155.307 158.108 160.945 161.806 162.661 163.51 164.354 165.261
167.826 170.336 172.727 175.034 177.202 178.271 179.334 180.392 181.442 182.795
184.55 186.285 188.013 189.732 191.353 192.006 192.659 193.312 193.965 194.746
195.403 196.06 196.716 197.373 198.025 199.347 200.669 201.993 203.317 204.636
205.955 207.279 208.604 209.931 211.251 211.433 211.615 211.798 211.98 212.176
213.306 214.434 215.56 216.684 217.8 220.4 222.973 225.519 228.042 230.552
231.837 233.123 234.411 235.701 236.981 238.257 239.534 240.811 242.086 243.359
245.892 248.416 250.934 253.464 256.028 258.611 261.214 263.841 266.496 269.209
270.21 271.216 272.225 273.239 274.173 274.556 274.939 275.322 275.706 276.091
277.516 278.945 280.379 281.818 283.263 286.116 288.983 291.865 294.76 297.675
300.608 303.566 306.542 309.532 311.535 311.769 312.004 312.238 312.473 312.709
315.898 319.13 322.411 325.808 329.431 330.684 331.946 333.217 334.497 335.972
338.349 340.761 343.209 345.689 348.146 352.023 355.932 359.871 363.838 367.741
371.82 375.914 380.022 384.143 388.248 392.381 396.543 400.736 404.957 409.202
413.49 417.83 422.229 426.686 431.221 435.759 440.385 445.097 449.896 454.897
459.849 464.824 469.807 473.964 480.804 489.362 497.021 503.908 510.142 511.176
513.884 516.509 519.057 521.533 523.875 525.491 527.055 528.571 530.04 531.835
535.648 539.331 542.877 546.284 549.549 550.016 550.483 550.949 551.415 551.94
555.49 559.029 562.548 566.039 569.214 0 0.906133 1.81241 2.71882 3.62538
4.53219 8.29675 12.0608 15.8322 19.6079 23.3947 27.1814 30.9743 34.7734 38.5788
42.3959 46.2174 50.0502 53.8933 57.7465 61.62 62.5552 63.4916 64.4287 65.3667
66.1555 69.1458 72.1448 75.1528 78.1696 81.2089 85.169 89.15 93.1516 97.1734
101.254 105.341 109.453 113.58 117.708 120.386 124.798 129.176 133.497 137.755
142.237 143.156 144.07 144.976 145.871 146.629 149.564 152.458 155.308 158.11
160.946 161.809 162.667 163.518 164.364 165.267 167.831 170.341 172.732 175.039
177.208 178.278 179.343 180.403 181.455 182.806 184.561 186.295 188.022 189.741
191.362 192.012 192.663 193.313 193.964 194.747 195.405 196.064 196.722 197.38
198.034 199.356 200.678 202.001 203.325 204.643 205.963 207.287 208.614 209.941
211.258 211.432 211.606 211.781 211.955 212.146 213.284 214.42 215.553 216.684
217.808 220.408 222.981 225.528 228.051 230.562 231.847 233.134 234.423 235.712
236.993 238.269 239.547 240.824 242.099 243.373 245.905 248.431 250.949 253.48
256.045 258.628 261.23 263.857 266.512 269.225 270.247 271.273 272.304 273.339
274.292 274.654 275.016 275.379 275.743 276.107 277.532 278.961 280.396 281.835
283.28 286.133 289.001 291.883 294.778 297.693 300.625 303.582 306.558 309.548
311.627 311.845 312.064 312.284 312.503 312.723 315.914 319.15 322.433 325.831
329.456 330.712 331.978 333.253 334.537 336.015 338.388 340.796 343.239 345.714
348.166 352.043 355.952 359.891 363.858 367.76 371.84 375.933 380.041 384.161
388.265 392.398 396.56 400.752 404.973 409.217 413.504 417.844 422.242 426.698
431.232 435.77 440.395 445.106 449.903 454.904 459.82 464.763 469.713 473.893
480.814 489.357 497.013 503.896 510.127 511.165 513.878 516.51 519.064 521.545
523.894 525.506 527.067 528.58 530.046 531.829 535.643 539.328 542.876 546.284
549.578 550.037 550.497 550.955 551.414 551.931 555.49 559.036 562.561 566.059
569.238 0 0.906072 1.81228 2.71864 3.62513 4.53188 8.29642 12.0605 15.832
19.6076 23.3943 27.181 30.9737 34.7727 38.5781 42.395 46.2163 50.0491 53.892
57.7451 61.6185 62.5691 63.5208 64.4733 65.4267 66.2245 69.2009 72.1859 75.1796
78.1822 81.207 85.1674 89.1483 93.1499 97.1717 101.252 105.339 109.45 113.577
117.704 120.36 124.778 129.16 133.486 137.749 142.234 143.152 144.065 144.97
145.866 146.629 149.563 152.458 155.309 158.112 160.947 161.812 162.672 163.526
164.374 165.273 167.837 170.345 172.737 175.045 177.214 178.285 179.352 180.414
181.468 182.817 184.571 186.305 188.032 189.75 191.371 192.019 192.667 193.314
193.962 194.747 195.408 196.068 196.728 197.388 198.043 199.365 200.687 202.009
203.332 204.65 205.97 207.294 208.621 209.949 211.266 211.432 211.598 211.763
211.929 212.111 213.258 214.402 215.544 216.683 217.815 220.415 222.99 225.537
228.061 230.573 231.858 233.146 234.434 235.724 237.006 238.282 239.56 240.837
242.113 243.386 245.92 248.446 250.965 253.496 256.062 258.645 261.247 263.873
266.528 269.241 270.286 271.334 272.387 273.445 274.418 274.758 275.099 275.44
275.781 276.123 277.548 278.978 280.413 281.853 283.298 286.152 289.019 291.902
294.796 297.712 300.643 303.599 306.574 309.564 311.724 311.926 312.129 312.331
312.534 312.738 315.93 319.169 322.455 325.855 329.48 330.742 332.013 333.293
334.583 336.065 338.432 340.834 343.272 345.741 348.186 352.063 355.972 359.911
363.878 367.78 371.859 375.952 380.059 384.178 388.282 392.415 396.576 400.767
404.988 409.231 413.518 417.857 422.255 426.71 431.242 435.78 440.404 445.114
449.91 454.909 459.785 464.692 469.605 473.807 480.821 489.349 496.998 503.877
510.104 511.145 513.865 516.504 519.066 521.554 523.909 525.517 527.074 528.583
530.046 531.816 535.633 539.319 542.869 546.279 549.602 550.055 550.506 550.957
551.408 551.917 555.484 559.037 562.57 566.075 569.258 0 0.90601 1.81216
2.71845 3.62489 4.53158 8.2961 12.0603 15.8317 19.6072 23.3938 27.1805 30.9732
34.7721 38.5773 42.394 46.2153 50.048 53.8908 57.7437 61.617 62.5829 63.55
64.5179 65.4868 66.2938 69.2562 72.227 75.2066 78.1948 81.2052 85.1659 89.1467
93.1483 97.17 101.25 105.337 109.447 113.573 117.7 120.335 124.757 129.144
133.474 137.742 142.231 143.149 144.06 144.965 145.86 146.63 149.563 152.458
155.311 158.114 160.949 161.815 162.678 163.534 164.385 165.28 167.843 170.351
172.743 175.05 177.22 178.293 179.362 180.425 181.481 182.828 184.582 186.315
188.042 189.759 191.381 192.026 192.671 193.316 193.961 194.748 195.41 196.072
196.734 197.396 198.052 199.375 200.696 202.018 203.34 204.658 205.978 207.302
208.628 209.956 211.274 211.432 211.589 211.747 211.904 212.076 213.232 214.385
215.535 216.683 217.824 220.423 222.999 225.547 228.072 230.585 231.87 233.157
234.446 235.737 237.019 238.295 239.573 240.851 242.127 243.401 245.934 248.461
250.981 253.513 256.08 258.662 261.264 263.89 266.545 269.258 270.325 271.396
272.471 273.552 274.545 274.863 275.182 275.501 275.82 276.14 277.564 278.995
280.43 281.87 283.317 286.17 289.038 291.92 294.815 297.731 300.661 303.617
306.591 309.58 311.822 312.008 312.194 312.38 312.566 312.753 315.946 319.189
322.477 325.879 329.505 330.772 332.049 333.335 334.63 336.117 338.478 340.874
343.306 345.769 348.207 352.082 355.992 359.931 363.898 367.8 371.878 375.971
380.077 384.196 388.299 392.432 396.592 400.783 405.003 409.245 413.532 417.87
422.267 426.721 431.253 435.79 440.412 445.122 449.916 454.915 459.75 464.619
469.495 473.719 480.828 489.34 496.983 503.857 510.081 511.124 513.851 516.498
519.067 521.561 523.924 525.527 527.08 528.585 530.045 531.803 535.621 539.309
542.861 546.273 549.627 550.072 550.515 550.958 551.401 551.902 555.478 559.038
562.578 566.09 569.278 0 0.905949 1.81204 2.71827 3.62464 4.53127 8.29577
12.0601 15.8314 19.6069 23.3934 27.1801 30.9726 34.7714 38.5765 42.3931 46.2143
50.0468 53.8895 57.7423 61.6154 62.5968 63.5792 64.5625 65.5468 66.3633 69.3117
72.2683 75.2336 78.2075 81.2034 85.1644 89.1451 93.1467 97.1684 101.248 105.335
109.445 113.571 117.696 120.311 124.736 129.128 133.463 137.735 142.228 143.145
144.056 144.96 145.855 146.631 149.563 152.459 155.313 158.116 160.951 161.819
162.684 163.543 164.396 165.287 167.849 170.356 172.748 175.056 177.227 178.301
179.372 180.437 181.494 182.84 184.593 186.326 188.052 189.769 191.391 192.034
192.676 193.318 193.96 194.749 195.413 196.077 196.741 197.404 198.062 199.385
200.705 202.026 203.349 204.665 205.986 207.31 208.636 209.964 211.283 211.431
211.58 211.728 211.876 212.037 213.203 214.365 215.525 216.682 217.832 220.432
223.008 225.557 228.082 230.596 231.882 233.169 234.459 235.749 237.032 238.308
239.587 240.865 242.141 243.415 245.95 248.477 250.997 253.53 256.098 258.68
261.281 263.908 266.562 269.275 270.365 271.459 272.558 273.663 274.677 274.972
275.267 275.563 275.86 276.157 277.581 279.012 280.448 281.889 283.335 286.189
289.057 291.94 294.835 297.75 300.68 303.635 306.608 309.597 311.924 312.093
312.261 312.43 312.599 312.768 315.963 319.209 322.5 325.904 329.53 330.803
332.086 333.378 334.68 336.173 338.528 340.917 343.341 345.797 348.227 352.103
356.012 359.952 363.918 367.82 371.898 375.99 380.095 384.214 388.316 392.449
396.609 400.798 405.017 409.259 413.546 417.883 422.279 426.732 431.263 435.8
440.421 445.129 449.922 454.92 459.713 464.542 469.378 473.623 480.835 489.329
496.965 503.834 510.053 511.1 513.834 516.489 519.065 521.567 523.938 525.535
527.084 528.585 530.041 531.786 535.606 539.296 542.85 546.264 549.65 550.087
550.522 550.957 551.391 551.884 555.469 559.037 562.585 566.103 569.296 0
0.905888 1.81192 2.71809 3.62439 4.53096 8.29545 12.0599 15.8311 19.6066 23.3929
27.1797 30.9721 34.7708 38.5757 42.3921 46.2133 50.0457 53.8883 57.7409 61.6139
62.6107 63.6084 64.6072 65.607 66.4332 69.3676 72.31 75.2609 78.2204 81.2016
85.1629 89.1437 93.1452 97.1668 101.246 105.333 109.443 113.567 117.693 120.286
124.716 129.113 133.452 137.729 142.225 143.141 144.052 144.956 145.851 146.632
149.563 152.46 155.315 158.119 160.953 161.823 162.69 163.552 164.407 165.294
167.856 170.361 172.754 175.062 177.234 178.309 179.382 180.449 181.508 182.852
184.604 186.337 188.062 189.779 191.401 192.041 192.681 193.32 193.96 194.748
195.415 196.081 196.747 197.412 198.072 199.395 200.715 202.036 203.358 204.674
205.994 207.318 208.644 209.972 211.292 211.431 211.57 211.708 211.847 211.997
213.172 214.345 215.514 216.681 217.841 220.441 223.018 225.567 228.094 230.608
231.894 233.182 234.471 235.762 237.045 238.322 239.601 240.879 242.156 243.43
245.965 248.493 251.014 253.547 256.116 258.698 261.299 263.925 266.58 269.293
270.406 271.524 272.647 273.775 274.81 275.082 275.355 275.628 275.901 276.174
277.599 279.03 280.466 281.908 283.355 286.208 289.077 291.959 294.855 297.77
300.699 303.653 306.626 309.614 312.028 312.179 312.33 312.481 312.632 312.784
315.98 319.23 322.524 325.93 329.556 330.836 332.126 333.425 334.733 336.233
338.581 340.962 343.379 345.827 348.249 352.124 356.034 359.973 363.94 367.841
371.918 376.01 380.115 384.232 388.335 392.467 396.626 400.815 405.034 409.275
413.561 417.898 422.292 426.745 431.274 435.811 440.431 445.137 449.929 454.926
459.675 464.462 469.258 473.523 480.842 489.318 496.947 503.809 510.023 511.074
513.815 516.479 519.063 521.572 523.951 525.543 527.088 528.585 530.037 531.769
535.591 539.283 542.838 546.255 549.672 550.101 550.528 550.955 551.381 551.865
555.46 559.036 562.591 566.117 569.314 0 0.905826 1.81179 2.7179 3.62415
4.53066 8.29512 12.0596 15.8308 19.6062 23.3925 27.1792 30.9715 34.7701 38.575
42.3912 46.2123 50.0446 53.887 57.7395 61.6124 62.6245 63.6377 64.6519 65.6672
66.5033 69.4236 72.3519 75.2884 78.2334 81.2 85.1616 89.1423 93.1437 97.1654
101.245 105.331 109.44 113.564 117.689 120.262 124.697 129.097 133.441 137.723
142.222 143.138 144.048 144.951 145.846 146.632 149.563 152.461 155.316 158.122
160.955 161.826 162.696 163.56 164.418 165.301 167.862 170.367 172.76 175.068
177.24 178.317 179.392 180.46 181.521 182.863 184.615 186.347 188.072 189.789
191.411 192.048 192.685 193.322 193.959 194.747 195.416 196.085 196.753 197.42
198.083 199.405 200.725 202.045 203.366 204.682 206.002 207.326 208.653 209.98
211.301 211.43 211.559 211.687 211.816 211.955 213.14 214.323 215.503 216.68
217.85 220.45 223.027 225.578 228.105 230.62 231.906 233.194 234.484 235.775
237.059 238.337 239.616 240.894 242.171 243.446 245.981 248.51 251.031 253.565
256.135 258.716 261.317 263.943 266.598 269.311 270.448 271.59 272.737 273.889
274.946 275.195 275.444 275.693 275.942 276.192 277.616 279.048 280.485 281.926
283.374 286.228 289.096 291.979 294.875 297.79 300.719 303.671 306.643 309.632
312.134 312.267 312.4 312.533 312.666 312.8 315.997 319.25 322.548 325.956
329.582 330.869 332.166 333.472 334.788 336.296 338.635 341.009 343.418 345.858
348.271 352.145 356.055 359.994 363.961 367.861 371.939 376.029 380.134 384.251
388.353 392.484 396.643 400.832 405.049 409.29 413.575 417.911 422.305 426.757
431.285 435.821 440.44 445.145 449.935 454.931 459.635 464.38 469.134 473.418
480.848 489.306 496.926 503.783 509.992 511.046 513.795 516.468 519.06 521.576
523.963 525.55 527.09 528.583 530.031 531.75 535.574 539.268 542.825 546.244
549.694 550.115 550.534 550.952 551.37 551.844 555.449 559.033 562.596 566.129
569.331 0 0.905765 1.81167 2.71772 3.6239 4.53036 8.2948 12.0594 15.8306
19.6059 23.392 27.1788 30.971 34.7695 38.5742 42.3902 46.2113 50.0434 53.8857
57.7382 61.6109 62.6383 63.6669 64.6966 65.7273 66.5735 69.4797 72.3938 75.3159
78.2464 81.1984 85.1603 89.1409 93.1423 97.164 101.243 105.33 109.438 113.561
117.685 120.239 124.677 129.082 133.431 137.716 142.219 143.135 144.044 144.947
145.842 146.631 149.561 152.461 155.317 158.124 160.957 161.83 162.702 163.568
164.428 165.307 167.867 170.371 172.765 175.074 177.247 178.325 179.401 180.471
181.534 182.874 184.626 186.357 188.082 189.798 191.421 192.056 192.69 193.324
193.957 194.745 195.417 196.088 196.758 197.428 198.093 199.416 200.735 202.054
203.375 204.69 206.01 207.334 208.661 209.989 211.31 211.43 211.55 211.67
211.791 211.919 213.114 214.305 215.494 216.681 217.859 220.458 223.037 225.588
228.116 230.632 231.919 233.207 234.497 235.788 237.073 238.35 239.63 240.909
242.186 243.46 245.996 248.526 251.048 253.583 256.153 258.734 261.335 263.961
266.615 269.328 270.488 271.653 272.823 273.999 275.077 275.303 275.529 275.755
275.982 276.209 277.633 279.066 280.503 281.945 283.393 286.247 289.116 291.999
294.894 297.81 300.738 303.69 306.661 309.649 312.221 312.34 312.459 312.578
312.697 312.816 316.015 319.271 322.572 325.981 329.609 330.901 332.204 333.517
334.839 336.352 338.685 341.053 343.455 345.887 348.293 352.167 356.077 360.016
363.983 367.883 371.96 376.05 380.153 384.27 388.371 392.503 396.661 400.849
405.066 409.306 413.591 417.926 422.319 426.77 431.297 435.833 440.45 445.154
449.943 454.938 459.6 464.306 469.021 473.326 480.856 489.297 496.911 503.762
509.967 511.024 513.781 516.461 519.061 521.584 523.979 525.56 527.096 528.585
530.029 531.736 535.562 539.258 542.817 546.238 549.719 550.132 550.543 550.953
551.363 551.829 555.443 559.034 562.605 566.146 569.353 0 0.905704 1.81155
2.71753 3.62366 4.53008 8.29451 12.0592 15.8303 19.6056 23.3916 27.1784 30.9704
34.7688 38.5735 42.3893 46.2104 50.0423 53.8845 57.7368 61.6094 62.652 63.6958
64.7407 65.7867 66.6429 69.5351 72.4352 75.3431 78.2593 81.1968 85.159 89.1396
93.141 97.1626 101.241 105.328 109.435 113.558 117.682 120.215 124.658 129.067
133.42 137.71 142.216 143.131 144.04 144.943 145.838 146.629 149.559 152.46
155.318 158.127 160.959 161.833 162.707 163.575 164.437 165.315 167.874 170.377
172.77 175.079 177.252 178.332 179.41 180.483 181.548 182.886 184.637 186.367
188.091 189.807 191.43 192.062 192.694 193.326 193.957 194.743 195.417 196.091
196.763 197.435 198.102 199.425 200.743 202.063 203.383 204.698 206.018 207.342
208.668 209.996 211.318 211.43 211.542 211.654 211.766 211.886 213.089 214.289
215.486 216.68 217.867 220.466 223.045 225.597 228.126 230.643 231.929 233.218
234.508 235.8 237.085 238.363 239.643 240.922 242.199 243.474 246.01 248.541
251.063 253.599 256.17 258.751 261.352 263.978 266.632 269.344 270.527 271.714
272.907 274.106 275.204 275.407 275.611 275.816 276.02 276.225 277.649 279.082
280.52 281.962 283.411 286.265 289.134 292.017 294.913 297.828 300.755 303.707
306.677 309.665 312.305 312.41 312.515 312.62 312.725 312.83 316.03 319.29
322.595 326.006 329.634 330.932 332.241 333.559 334.887 336.406 338.733 341.094
343.489 345.915 348.314 352.187 356.097 360.037 364.003 367.903 371.979 376.069
380.172 384.288 388.389 392.52 396.678 400.865 405.081 409.32 413.605 417.94
422.332 426.782 431.308 435.843 440.46 445.163 449.95 454.944 459.566 464.234
468.911 473.236 480.863 489.288 496.896 503.743 509.944 511.004 513.768 516.455
519.062 521.592 523.994 525.571 527.103 528.588 530.029 531.724 535.551 539.249
542.81 546.232 549.744 550.149 550.553 550.955 551.357 551.814 555.437 559.036
562.615 566.163 569.374 0 0.905643 1.81143 2.71735 3.62341 4.52981 8.29422
12.059 15.8301 19.6053 23.3912 27.178 30.9699 34.7682 38.5727 42.3884 46.2094
50.0412 53.8833 57.7355 61.6079 62.6657 63.7247 64.7849 65.8461 66.7122 69.5905
72.4766 75.3703 78.2722 81.1953 85.1577 89.1383 93.1396 97.1612 101.24 105.326
109.433 113.555 117.678 120.191 124.638 129.052 133.41 137.704 142.213 143.128
144.036 144.939 145.834 146.627 149.557 152.46 155.319 158.129 160.961 161.837
162.712 163.582 164.446 165.322 167.88 170.382 172.775 175.083 177.257 178.339
179.419 180.494 181.561 182.898 184.648 186.378 188.101 189.815 191.438 192.068
192.698 193.328 193.957 194.741 195.418 196.093 196.768 197.442 198.111 199.434
200.752 202.071 203.391 204.705 206.025 207.349 208.675 210.003 211.325 211.429
211.534 211.638 211.742 211.852 213.063 214.272 215.477 216.68 217.874 220.473
223.053 225.606 228.135 230.654 231.94 233.229 234.52 235.812 237.097 238.376
239.656 240.935 242.213 243.488 246.024 248.556 251.079 253.615 256.187 258.768
261.368 263.994 266.648 269.36 270.565 271.774 272.99 274.212 275.33 275.512
275.694 275.876 276.058 276.241 277.665 279.099 280.537 281.98 283.429 286.283
289.152 292.035 294.931 297.846 300.773 303.723 306.693 309.68 312.389 312.48
312.571 312.662 312.754 312.845 316.046 319.309 322.617 326.031 329.659 330.962
332.277 333.601 334.935 336.459 338.78 341.135 343.523 345.943 348.335 352.207
356.117 360.057 364.024 367.923 371.999 376.088 380.191 384.306 388.406 392.537
396.694 400.881 405.097 409.335 413.62 417.953 422.344 426.794 431.319 435.853
440.469 445.17 449.956 454.95 459.531 464.162 468.801 473.145 480.87 489.279
496.881 503.723 509.92 510.984 513.754 516.449 519.063 521.6 524.009 525.581
527.109 528.591 530.028 531.711 535.54 539.239 542.802 546.227 549.769 550.166
550.562 550.956 551.35 551.798 555.43 559.038 562.624 566.179 569.395 0
0.905581 1.8113 2.71717 3.62317 4.52954 8.29393 12.0588 15.8298 19.605 23.3908
27.1776 30.9694 34.7676 38.572 42.3875 46.2084 50.0401 53.8821 57.7341 61.6064
62.6794 63.7536 64.829 65.9056 66.7815 69.6459 72.5179 75.3976 78.2852 81.1938
85.1565 89.137 93.1383 97.1599 101.238 105.324 109.431 113.552 117.675 120.168
124.619 129.037 133.399 137.698 142.21 143.125 144.033 144.935 145.83 146.626
149.555 152.459 155.32 158.131 160.963 161.84 162.717 163.589 164.455 165.33
167.887 170.387 172.78 175.088 177.262 178.346 179.428 180.505 181.574 182.91
184.659 186.388 188.11 189.824 191.446 192.075 192.702 193.33 193.957 194.739
195.418 196.096 196.773 197.449 198.12 199.443 200.761 202.079 203.398 204.712
206.032 207.356 208.682 210.01 211.333 211.429 211.524 211.62 211.716 211.817
213.037 214.254 215.468 216.679 217.882 220.481 223.062 225.616 228.145 230.665
231.951 233.24 234.531 235.824 237.109 238.388 239.669 240.948 242.226 243.501
246.039 248.57 251.094 253.631 256.204 258.784 261.385 264.01 266.664 269.377
270.604 271.836 273.075 274.32 275.459 275.618 275.777 275.937 276.097 276.257
277.681 279.115 280.553 281.996 283.446 286.3 289.169 292.053 294.949 297.864
300.79 303.74 306.708 309.696 312.474 312.551 312.628 312.705 312.782 312.859
316.061 319.328 322.639 326.055 329.684 330.993 332.313 333.644 334.984 336.514