/*--------------------------------*- C++ -*----------------------------------*\
  =========                 |
  \\      /  F ield         | OpenFOAM: The Open Source CFD Toolbox
   \\    /   O peration     | Website:  https://openfoam.org
    \\  /    A nd           | Version:  10
     \\/     M anipulation  |
\*---------------------------------------------------------------------------*/
FoamFile
{
    format      ascii;
    class       volScalarField;
    location    "2000";
    object      k;
}
// * * * * * * * * * * * * * * * * * * * * * * * * * * * * * * * * * * * * * //

dimensions      [0 2 -2 0 0 0 0];

internalField   nonuniform List<scalar> 
55398
(
0.23156
0.204929
0.199198
0.273216
0.427299
0.806776
0.22342
0.195889
0.174605
0.157761
0.144105
0.136024
0.201644
0.66456
2.22977
3.25293
3.23003
3.66505
3.55142
3.26865
0.210684
0.187427
0.168634
0.153339
0.141185
0.13391
0.155406
0.275182
1.6453
2.88408
2.31072
1.95716
1.46869
0.977866
0.73747
0.210719
0.187479
0.168739
0.153481
0.141337
0.13318
0.138964
0.171147
0.290086
0.71699
1.19629
0.492514
0.252437
0.208102
0.182934
0.17289
0.157091
0.151168
0.210904
0.187747
0.169033
0.153753
0.141453
0.132615
0.131155
0.149276
0.184741
0.205786
0.222568
0.196401
0.162225
0.13701
0.125929
0.116781
0.109608
0.102034
0.0960804
0.0914776
0.211096
0.188043
0.169371
0.154077
0.141645
0.13214
0.127523
0.132509
0.138281
0.139336
0.137594
0.129651
0.121918
0.114125
0.106741
0.100514
0.0952959
0.0900762
0.085592
0.0816175
0.211279
0.18833
0.16971
0.154383
0.141919
0.131946
0.125392
0.124232
0.124267
0.123116
0.119245
0.113657
0.107842
0.101715
0.0963597
0.0915861
0.0873147
0.0830671
0.0792896
0.0758322
0.211448
0.1886
0.170036
0.154768
0.142169
0.132016
0.124439
0.120015
0.116924
0.113845
0.109631
0.104896
0.0999766
0.0949141
0.0904243
0.0862422
0.0824412
0.0787167
0.0753404
0.0722157
0.211517
0.188819
0.170347
0.155133
0.142502
0.132203
0.123978
0.117999
0.113262
0.108974
0.104461
0.0998805
0.0952767
0.0907554
0.0866454
0.0828589
0.079338
0.0759384
0.0727882
0.0698709
0.211761
0.189086
0.170627
0.155401
0.142788
0.132393
0.123871
0.117089
0.111457
0.106455
0.101657
0.0970586
0.0926519
0.0883835
0.0844978
0.0808702
0.0774918
0.0742616
0.0712624
0.0684541
0.211895
0.189303
0.170892
0.155691
0.14307
0.132595
0.12387
0.11667
0.110568
0.105169
0.100157
0.0954642
0.0911301
0.0869676
0.0831659
0.0796146
0.0763348
0.0732022
0.0702871
0.0675407
0.212017
0.189504
0.171139
0.155964
0.14334
0.132814
0.123956
0.116523
0.110162
0.104503
0.0993268
0.0945787
0.0902154
0.0861519
0.0823609
0.0788731
0.0756249
0.072552
0.0696854
0.0669711
0.212132
0.189692
0.171369
0.156219
0.143604
0.133036
0.124102
0.116519
0.109992
0.104161
0.0988754
0.0940682
0.0896737
0.0856148
0.0818656
0.0783963
0.0751679
0.0721313
0.0692969
0.0666064
0.212238
0.189867
0.171585
0.156462
0.143892
0.13324
0.124263
0.116591
0.10994
0.10402
0.0986373
0.0937686
0.0893563
0.0852952
0.0815522
0.0781081
0.0748955
0.0718825
0.0690691
0.0663932
0.212339
0.190032
0.171788
0.156688
0.144093
0.13346
0.124441
0.116719
0.109986
0.103995
0.0985529
0.0936592
0.0892059
0.0851412
0.0814051
0.0779673
0.0747604
0.0717589
0.0689567
0.0662902
0.212433
0.190188
0.171979
0.156899
0.144287
0.133672
0.12463
0.116867
0.110086
0.104043
0.0985859
0.0936627
0.0891912
0.0851187
0.0813854
0.077939
0.0747347
0.0717371
0.0689424
0.0662815
0.212522
0.190335
0.17216
0.157097
0.1445
0.133863
0.12482
0.117036
0.110232
0.104163
0.0986863
0.093745
0.0892576
0.0851727
0.0814269
0.0779769
0.0747649
0.0717619
0.0689608
0.0662957
0.212579
0.190423
0.172258
0.157194
0.14458
0.133932
0.124867
0.117076
0.11024
0.104153
0.0986539
0.0936977
0.0891916
0.0850954
0.081348
0.0778729
0.0746387
0.0716198
0.0688061
0.0661318
0.231477
0.202364
0.187998
0.219611
0.459675
0.601686
0.223407
0.195869
0.174575
0.157628
0.14406
0.135205
0.191823
0.612404
2.33638
3.48059
3.40694
3.52076
3.45265
3.08716
0.210652
0.187393
0.168645
0.153344
0.141206
0.133845
0.153269
0.274972
1.4982
2.73776
2.17542
1.83424
0.97531
0.979303
0.668549
0.210721
0.187478
0.168741
0.153489
0.141356
0.133157
0.137756
0.169409
0.313052
0.557847
1.16871
0.328377
0.250338
0.207752
0.180955
0.167552
0.152984
0.144147
0.210907
0.187748
0.169037
0.153763
0.141461
0.132592
0.130665
0.147961
0.17645
0.198539
0.207547
0.194719
0.152204
0.136878
0.124963
0.11628
0.109079
0.101584
0.095447
0.0904301
0.2111
0.188044
0.169376
0.154087
0.141654
0.132122
0.12733
0.131655
0.137131
0.138548
0.135371
0.129153
0.121789
0.113657
0.10623
0.100278
0.0950568
0.0898127
0.0852322
0.0810973
0.211283
0.188332
0.169714
0.154404
0.141918
0.131957
0.125317
0.123885
0.123678
0.12259
0.118793
0.113483
0.107811
0.101676
0.0963307
0.0914807
0.0871739
0.082986
0.0791199
0.0755464
0.211452
0.188601
0.170039
0.154776
0.142188
0.131988
0.124433
0.119876
0.116661
0.113569
0.109406
0.10478
0.0999487
0.0948977
0.09039
0.0861826
0.0823614
0.0786669
0.0752472
0.0720455
0.211544
0.188815
0.17034
0.155129
0.142516
0.132216
0.123969
0.117965
0.113163
0.10885
0.104346
0.0998038
0.0952192
0.0907365
0.0866333
0.0828197
0.0792931
0.0759093
0.0727421
0.0697746
0.211761
0.189088
0.170629
0.155409
0.142797
0.132406
0.123859
0.117101
0.111436
0.106406
0.101602
0.0970117
0.0926127
0.0883757
0.0844871
0.0808468
0.0774642
0.0742429
0.0712332
0.0683936
0.211894
0.189305
0.170894
0.155697
0.143077
0.13262
0.123875
0.116691
0.110574
0.10515
0.10013
0.0954187
0.0910897
0.0869619
0.0831599
0.0796046
0.0763155
0.0731914
0.0702714
0.0675055
0.212017
0.189506
0.171141
0.155969
0.143346
0.132819
0.123996
0.11656
0.110168
0.104497
0.0993167
0.0945576
0.0901834
0.0861644
0.0823452
0.078861
0.0756129
0.0725447
0.0696766
0.0669504
0.212131
0.189693
0.171371
0.156223
0.14361
0.133042
0.124137
0.116554
0.109998
0.104163
0.0988719
0.0940551
0.0896529
0.0856116
0.0818683
0.0783899
0.0751609
0.0721266
0.0692926
0.066595
0.212238
0.189868
0.171586
0.156465
0.143899
0.13326
0.124295
0.116621
0.109949
0.104022
0.0986369
0.0937573
0.0893502
0.0852959
0.0815539
0.0781053
0.0748913
0.0718793
0.0690673
0.0663875
0.212338
0.190033
0.171789
0.15669
0.144097
0.133487
0.124471
0.116745
0.109994
0.103998
0.0985543
0.0936572
0.0892026
0.0851415
0.0814055
0.0779648
0.0747574
0.0717565
0.0689566
0.0662881
0.212432
0.190188
0.17198
0.1569
0.144293
0.133688
0.124652
0.116886
0.110093
0.104045
0.0985877
0.0936618
0.0891887
0.085119
0.081385
0.0779379
0.0747322
0.0717353
0.0689422
0.0662804
0.212521
0.190335
0.17216
0.157098
0.144501
0.133875
0.124832
0.117048
0.110236
0.104165
0.0986876
0.0937442
0.0892555
0.0851732
0.0814274
0.0779738
0.0747619
0.0717599
0.0689604
0.0662943
0.212578
0.190423
0.172257
0.157193
0.144579
0.133935
0.124871
0.11708
0.110241
0.104153
0.0986541
0.0936973
0.0891899
0.0850946
0.0813475
0.0778694
0.0746378
0.0716195
0.0688069
0.0661323
0.231493
0.20132
0.18315
0.195276
0.359347
0.507576
0.223411
0.195877
0.174583
0.157612
0.14436
0.135417
0.181738
0.511885
2.47991
3.65213
3.521
3.46895
3.34549
3.01012
0.210646
0.187377
0.168643
0.153338
0.141211
0.133814
0.152915
0.264903
2.16205
2.7478
2.18185
1.78784
0.929204
0.930099
0.659361
0.210724
0.187476
0.168743
0.153487
0.14136
0.133165
0.137993
0.169267
0.295528
0.434488
0.956615
0.318601
0.25442
0.210028
0.180039
0.163844
0.151274
0.142407
0.21091
0.187746
0.169038
0.153761
0.141458
0.132597
0.130749
0.148074
0.178578
0.198472
0.2058
0.19116
0.150278
0.135643
0.124793
0.116147
0.108673
0.101225
0.0952456
0.0902362
0.211103
0.188042
0.169376
0.154085
0.14165
0.13213
0.127353
0.131745
0.13733
0.138622
0.135225
0.129049
0.121069
0.11287
0.106075
0.100204
0.0948678
0.0896097
0.085113
0.0810357
0.211286
0.18833
0.169715
0.15441
0.141908
0.131982
0.12532
0.123906
0.123735
0.122611
0.118704
0.113474
0.10785
0.101522
0.096253
0.0914629
0.0870706
0.0828106
0.0789656
0.0755047
0.211455
0.1886
0.170039
0.154773
0.14219
0.132014
0.124413
0.119879
0.116676
0.113572
0.109378
0.104764
0.0999482
0.0948463
0.0903398
0.0861726
0.0823039
0.0785641
0.0751616
0.0720236
0.211565
0.188814
0.170334
0.155117
0.142514
0.13222
0.123976
0.117966
0.113165
0.108854
0.10433
0.0997916
0.0952376
0.0907077
0.0866093
0.0828105
0.0792606
0.0758504
0.0726974
0.0697635
0.211762
0.189087
0.17063
0.155408
0.142796
0.132409
0.12386
0.117098
0.111436
0.10641
0.101596
0.096976
0.0926003
0.0883553
0.084469
0.0808405
0.0774452
0.0742074
0.071205
0.0683846
0.211895
0.189304
0.170896
0.155697
0.143076
0.132618
0.123881
0.11669
0.110575
0.105152
0.100124
0.0954028
0.0910916
0.0869514
0.0831484
0.079603
0.0763036
0.0731708
0.0702559
0.0675009
0.212018
0.189505
0.171142
0.155968
0.143345
0.132823
0.123993
0.116557
0.110171
0.104499
0.0993146
0.0945542
0.090185
0.0861473
0.0823222
0.0788521
0.0756047
0.0725314
0.0696674
0.0669484
0.212132
0.189692
0.171372
0.156223
0.143609
0.133046
0.124135
0.116552
0.11
0.104166
0.0988704
0.0940531
0.089653
0.0856017
0.0818426
0.0783792
0.075156
0.0721184
0.0692877
0.0665944
0.212238
0.189868
0.171588
0.156465
0.143893
0.133268
0.124295
0.116619
0.109951
0.104022
0.0986353
0.09376
0.0893442
0.0853036
0.0815376
0.0780965
0.0748887
0.0718742
0.0690648
0.0663877
0.212338
0.190032
0.17179
0.15669
0.1441
0.133486
0.124472
0.116744
0.109996
0.103998
0.0985532
0.0936568
0.0892013
0.0851416
0.0814048
0.07796
0.0747562
0.0717535
0.0689558
0.0662888
0.212433
0.190188
0.171981
0.1569
0.144297
0.133684
0.124652
0.116886
0.110095
0.104045
0.0985871
0.0936616
0.089187
0.0851191
0.0813839
0.0779352
0.0747316
0.0717331
0.0689418
0.0662811
0.212522
0.190335
0.172161
0.157098
0.144501
0.133874
0.124832
0.117048
0.110237
0.104165
0.0986873
0.0937443
0.0892538
0.0851733
0.0814263
0.0779707
0.0747606
0.071757
0.0689598
0.066295
0.212579
0.190423
0.172259
0.157193
0.144579
0.133935
0.124871
0.117079
0.110242
0.104154
0.098654
0.0936972
0.089188
0.0850936
0.0813482
0.0778645
0.0746373
0.0716184
0.0688078
0.0661332
0.231534
0.20084
0.180053
0.181216
0.305044
0.465012
0.223414
0.195879
0.174588
0.157602
0.144636
0.135792
0.178764
0.469194
2.4877
3.74986
3.58115
3.53514
3.29808
3.00939
0.21064
0.187364
0.168637
0.153333
0.141217
0.133801
0.152553
0.266628
2.47344
2.80401
2.20373
1.76446
0.915979
0.906155
0.656164
0.210725
0.187474
0.168743
0.153485
0.141362
0.13317
0.138144
0.170467
0.286976
0.390655
0.809106
0.30666
0.254297
0.211566
0.180729
0.163566
0.150814
0.141346
0.210913
0.187745
0.169038
0.153759
0.141455
0.132602
0.130833
0.148264
0.179835
0.199508
0.205437
0.189839
0.14997
0.136247
0.125031
0.11611
0.108564
0.101337
0.0952558
0.0901489
0.211104
0.188041
0.169376
0.154083
0.141647
0.132137
0.12738
0.13183
0.137553
0.138761
0.135176
0.129056
0.12095
0.11299
0.106104
0.100157
0.094821
0.0896684
0.0851138
0.08102
0.211287
0.188328
0.169714
0.154414
0.141901
0.132
0.125326
0.123928
0.123797
0.122645
0.118672
0.113489
0.107543
0.101215
0.0961917
0.0914367
0.0870476
0.0828337
0.0789754
0.0754933
0.211457
0.188599
0.170039
0.15477
0.142192
0.132032
0.124398
0.119878
0.116692
0.113579
0.10937
0.104771
0.0997659
0.0946457
0.0902963
0.0861557
0.0822923
0.0785822
0.0751663
0.0720189
0.211579
0.188816
0.17033
0.155107
0.142511
0.132223
0.123978
0.117967
0.113168
0.108859
0.104326
0.0997827
0.0952098
0.090622
0.0865974
0.0828016
0.0792534
0.0758592
0.0727014
0.069762
0.211762
0.189086
0.17063
0.155407
0.142794
0.132411
0.12386
0.117095
0.111436
0.106415
0.101595
0.0969631
0.0925938
0.088316
0.0844645
0.0808356
0.0774412
0.0742118
0.0712051
0.0683815
0.211895
0.189304
0.170896
0.155697
0.143074
0.132616
0.123883
0.11669
0.110576
0.105155
0.100122
0.0954009
0.0910764
0.0869236
0.083147
0.0796021
0.0763009
0.073173
0.0702556
0.0674995
0.212018
0.189505
0.171143
0.155968
0.143344
0.132825
0.123991
0.116555
0.110172
0.104502
0.0993143
0.0945529
0.0901773
0.0861148
0.0823351
0.0788497
0.0756019
0.0725318
0.0696666
0.0669479
0.212132
0.189692
0.171373
0.156223
0.143608
0.133047
0.124133
0.11655
0.11
0.104168
0.0988701
0.0940521
0.0896482
0.0855848
0.081842
0.078378
0.0751544
0.0721182
0.0692868
0.0665945
0.212239
0.189867
0.171588
0.156465
0.143889
0.133271
0.124295
0.116618
0.109953
0.104023
0.0986344
0.0937618
0.0893385
0.0852961
0.0815217
0.0780921
0.0748873
0.0718734
0.0690638
0.0663881
0.212339
0.190032
0.171791
0.156691
0.144102
0.133483
0.124471
0.116744
0.109998
0.103998
0.0985527
0.0936564
0.0892001
0.085135
0.0813874
0.0779573
0.0747557
0.0717525
0.0689547
0.0662894
0.212433
0.190188
0.171982
0.156901
0.1443
0.133681
0.124651
0.116885
0.110096
0.104046
0.0985868
0.0936615
0.0891865
0.0851154
0.0813706
0.0779342
0.0747319
0.0717324
0.0689405
0.0662815
0.212522
0.190334
0.172162
0.157098
0.144502
0.133873
0.124832
0.117047
0.110238
0.104165
0.0986873
0.0937444
0.0892533
0.0851702
0.0814162
0.0779709
0.0747608
0.071756
0.0689589
0.0662955
0.212579
0.190422
0.17226
0.157194
0.144579
0.133934
0.124871
0.117079
0.110242
0.104154
0.0986542
0.0936972
0.0891875
0.0850928
0.0813432
0.0778625
0.0746373
0.0716179
0.0688076
0.0661339
0.231561
0.200752
0.178103
0.171514
0.270682
0.436426
0.223416
0.195879
0.174589
0.157573
0.144774
0.136071
0.175665
0.435597
2.4863
3.81653
3.6402
3.61496
3.29352
3.00557
0.210635
0.187353
0.168629
0.153328
0.141221
0.133796
0.151979
0.260683
2.69428
2.84168
2.23516
1.74907
0.902105
0.88834
0.653202
0.210727
0.187474
0.168742
0.153484
0.141363
0.133173
0.138174
0.170781
0.282557
0.385382
0.736544
0.292385
0.250707
0.211766
0.181277
0.163473
0.150481
0.140474
0.210914
0.187744
0.169037
0.153758
0.141453
0.132605
0.130891
0.148446
0.180113
0.199963
0.204759
0.18928
0.149858
0.136566
0.125248
0.116124
0.108488
0.101406
0.0952778
0.0900876
0.211106
0.18804
0.169376
0.154082
0.141645
0.132141
0.127404
0.131904
0.137751
0.13893
0.13519
0.129071
0.120872
0.113054
0.106133
0.100125
0.0947773
0.0897027
0.0851222
0.0810095
0.211289
0.188328
0.169714
0.154418
0.141898
0.132012
0.125334
0.123949
0.123854
0.122684
0.118653
0.113488
0.107468
0.101382
0.0961888
0.091416
0.0870254
0.0828472
0.078987
0.0754872
0.211458
0.188598
0.170039
0.154769
0.142192
0.132046
0.124391
0.119876
0.116704
0.113587
0.109362
0.104774
0.0997299
0.0947171
0.0902829
0.0861391
0.0822798
0.0785941
0.0751735
0.072017
0.21159
0.18882
0.170327
0.1551
0.142507
0.132225
0.123979
0.117968
0.11317
0.108862
0.104324
0.0997749
0.0952213
0.0906272
0.0865916
0.0827935
0.0792463
0.0758649
0.0727062
0.0697619
0.211762
0.189086
0.170631
0.155407
0.142793
0.132412
0.123861
0.117094
0.111435
0.106418
0.101595
0.0969534
0.0926001
0.0883267
0.0844644
0.0808319
0.0774377
0.0742148
0.0712062
0.0683793
0.211895
0.189303
0.170897
0.155697
0.143073
0.132615
0.123885
0.11669
0.110576
0.105157
0.100122
0.095399
0.0910723
0.0869246
0.0831471
0.0796015
0.0762989
0.0731745
0.070256
0.0674985
0.212018
0.189504
0.171143
0.155968
0.143343
0.132827
0.12399
0.116553
0.110173
0.104504
0.0993144
0.0945518
0.0901754
0.0861057
0.0823444
0.0788504
0.0756
0.0725319
0.0696662
0.0669474
0.212132
0.189692
0.171373
0.156223
0.143607
0.133049
0.124132
0.116548
0.11
0.10417
0.0988703
0.0940514
0.0896465
0.0855807
0.0818446
0.0783784
0.0751533
0.0721179
0.0692861
0.0665944
0.212239
0.189867
0.171589
0.156465
0.143886
0.133273
0.124296
0.116617
0.109953
0.104024
0.098634
0.093763
0.0893355
0.085287
0.0815293
0.0780914
0.074886
0.0718727
0.0690629
0.0663881
0.212339
0.190032
0.171792
0.156691
0.144104
0.133481
0.12447
0.116743
0.109999
0.103999
0.0985524
0.0936559
0.0891997
0.0851327
0.0813872
0.077956
0.0747551
0.0717517
0.0689538
0.0662896
0.212433
0.190188
0.171983
0.156901
0.144302
0.133679
0.12465
0.116885
0.110097
0.104046
0.0985867
0.0936612
0.0891866
0.0851139
0.0813683
0.0779336
0.074732
0.0717319
0.0689395
0.0662815
0.212522
0.190334
0.172162
0.157098
0.144502
0.133873
0.124831
0.117047
0.110238
0.104165
0.0986873
0.0937444
0.089254
0.0851689
0.0814129
0.0779708
0.0747609
0.0717553
0.0689581
0.0662956
0.212579
0.190422
0.17226
0.157194
0.14458
0.133934
0.124871
0.117079
0.110243
0.104154
0.0986543
0.0936971
0.0891883
0.0850943
0.0813383
0.0778604
0.0746368
0.0716174
0.0688073
0.0661344
0.23157
0.200873
0.177139
0.165101
0.247646
0.415788
0.223416
0.195879
0.174588
0.157533
0.144768
0.136216
0.172733
0.409697
2.47162
3.85367
3.69599
3.68494
3.31782
3.00232
0.210631
0.187344
0.168622
0.153322
0.141223
0.133795
0.151272
0.252831
2.92049
2.84799
2.27574
1.74544
0.888961
0.872804
0.649529
0.210728
0.187473
0.168742
0.153483
0.141364
0.133176
0.138108
0.170233
0.277493
0.394792
0.776133
0.278897
0.244913
0.210533
0.181402
0.163388
0.150211
0.139753
0.210915
0.187744
0.169037
0.153757
0.141453
0.132608
0.130921
0.14855
0.180024
0.199883
0.203936
0.188867
0.149836
0.136733
0.125411
0.116159
0.108439
0.101444
0.0953008
0.0900461
0.211107
0.18804
0.169376
0.154082
0.141644
0.132143
0.127424
0.131962
0.1379
0.139093
0.135243
0.129092
0.12083
0.113091
0.106157
0.100102
0.0947374
0.0897163
0.0851303
0.0810025
0.211289
0.188328
0.169714
0.15442
0.141896
0.132021
0.125343
0.123968
0.123904
0.122726
0.118643
0.113477
0.107409
0.101482
0.0962098
0.0914053
0.0870057
0.0828516
0.0789959
0.0754838
0.211459
0.188598
0.170039
0.154768
0.142193
0.132056
0.124389
0.119875
0.116712
0.113595
0.109355
0.104775
0.0997034
0.0947639
0.0902836
0.0861264
0.0822667
0.0785995
0.0751799
0.0720167
0.211597
0.188824
0.170327
0.155095
0.142503
0.132226
0.12398
0.117968
0.113171
0.108864
0.104323
0.0997682
0.0952258
0.090637
0.0865904
0.0827871
0.079239
0.075867
0.0727101
0.0697625
0.211762
0.189086
0.170631
0.155406
0.142792
0.132413
0.123861
0.117093
0.111434
0.10642
0.101595
0.0969457
0.0926027
0.0883362
0.0844668
0.0808295
0.0774342
0.0742162
0.0712074
0.0683779
0.211895
0.189303
0.170897
0.155697
0.143072
0.132615
0.123886
0.11669
0.110576
0.105159
0.100121
0.0953969
0.0910689
0.0869252
0.0831477
0.0796011
0.0762971
0.0731752
0.0702565
0.0674978
0.212018
0.189504
0.171144
0.155968
0.143342
0.132828
0.123989
0.116551
0.110173
0.104505
0.0993149
0.0945509
0.0901738
0.0860993
0.08235
0.0788522
0.0755989
0.0725317
0.0696658
0.0669469
0.212132
0.189692
0.171374
0.156223
0.143607
0.133049
0.124132
0.116547
0.11
0.104171
0.0988707
0.0940508
0.0896452
0.0855776
0.0818468
0.0783792
0.0751526
0.0721175
0.0692855
0.0665941
0.212239
0.189867
0.171589
0.156466
0.143884
0.133273
0.124296
0.116617
0.109954
0.104025
0.0986338
0.0937636
0.0893336
0.0852799
0.081535
0.0780923
0.0748853
0.0718719
0.069062
0.066388
0.212339
0.190032
0.171792
0.156692
0.144105
0.13348
0.12447
0.116742
0.109999
0.103999
0.0985523
0.0936555
0.0891994
0.0851306
0.0813891
0.0779557
0.0747545
0.071751
0.0689529
0.0662895
0.212434
0.190187
0.171983
0.156902
0.144304
0.133678
0.124649
0.116884
0.110097
0.104047
0.0985867
0.0936609
0.0891868
0.085112
0.0813685
0.0779336
0.074732
0.0717315
0.0689387
0.0662814
0.212523
0.190334
0.172163
0.157099
0.144503
0.133872
0.124831
0.117046
0.110238
0.104165
0.0986873
0.0937443
0.0892546
0.0851665
0.0814123
0.0779708
0.0747609
0.0717548
0.0689573
0.0662956
0.212579
0.190422
0.172261
0.157194
0.14458
0.133934
0.12487
0.117079
0.110243
0.104154
0.0986545
0.0936971
0.0891889
0.0850965
0.0813352
0.0778582
0.0746359
0.0716168
0.068807
0.0661347
0.231571
0.20106
0.176926
0.161066
0.232067
0.402067
0.223416
0.195879
0.174588
0.157492
0.14464
0.1362
0.170194
0.394987
2.43829
3.85675
3.74198
3.7418
3.3615
3.00246
0.210627
0.187338
0.168616
0.153317
0.141223
0.133795
0.150537
0.245607
3.12241
2.81719
2.32063
1.75435
0.877838
0.859214
0.644964
0.210728
0.187473
0.168741
0.153482
0.141365
0.133177
0.137979
0.169126
0.271343
0.403494
0.868078
0.268548
0.238388
0.20813
0.180968
0.163197
0.149958
0.13915
0.210915
0.187744
0.169037
0.153757
0.141452
0.132609
0.130927
0.148535
0.17966
0.199501
0.203078
0.188436
0.149839
0.136821
0.125522
0.116193
0.108408
0.101465
0.0953222
0.0900192
0.211107
0.18804
0.169376
0.154081
0.141644
0.132144
0.127437
0.132001
0.137993
0.139224
0.135309
0.129114
0.120809
0.113119
0.10618
0.100087
0.0947025
0.0897168
0.0851353
0.0809977
0.21129
0.188328
0.169714
0.154422
0.141896
0.132027
0.125352
0.123984
0.123944
0.122765
0.118643
0.113462
0.10736
0.101539
0.0962383
0.0914039
0.0869904
0.0828511
0.0790017
0.0754821
0.21146
0.188598
0.170039
0.154768
0.142193
0.132064
0.124389
0.119876
0.116719
0.113602
0.10935
0.104773
0.0996852
0.0947941
0.0902913
0.0861177
0.0822545
0.0786003
0.0751847
0.0720173
0.211603
0.188829
0.170327
0.155091
0.1425
0.132226
0.123981
0.117967
0.113171
0.108865
0.104322
0.0997626
0.0952267
0.090646
0.0865926
0.0827827
0.0792322
0.0758668
0.0727127
0.0697634
0.211762
0.189085
0.170631
0.155406
0.142792
0.132414
0.123862
0.117092
0.111433
0.10642
0.101595
0.0969393
0.0926031
0.0883435
0.0844709
0.0808285
0.0774313
0.0742165
0.0712082
0.068377
0.211895
0.189303
0.170897
0.155697
0.143072
0.132614
0.123886
0.11669
0.110576
0.10516
0.100121
0.0953951
0.0910659
0.0869252
0.083149
0.079601
0.0762957
0.0731753
0.0702568
0.0674973
0.212018
0.189504
0.171144
0.155969
0.143342
0.132829
0.123989
0.116549
0.110172
0.104506
0.0993156
0.0945503
0.0901725
0.0860947
0.082354
0.0788542
0.0755985
0.0725315
0.0696656
0.0669465
0.212132
0.189691
0.171374
0.156224
0.143607
0.13305
0.124132
0.116545
0.109999
0.104172
0.0988714
0.0940504
0.0896441
0.0855752
0.0818492
0.0783803
0.0751523
0.0721173
0.069285
0.0665939
0.212239
0.189867
0.17159
0.156466
0.143882
0.133273
0.124296
0.116616
0.109954
0.104026
0.098634
0.0937641
0.0893323
0.0852743
0.0815397
0.0780942
0.0748852
0.0718714
0.0690612
0.0663876
0.212339
0.190032
0.171792
0.156692
0.144107
0.133479
0.124469
0.116742
0.11
0.104
0.0985524
0.0936551
0.0891991
0.0851284
0.0813924
0.0779565
0.0747543
0.0717503
0.068952
0.0662893
0.212434
0.190187
0.171983
0.156902
0.144305
0.133678
0.124648
0.116883
0.110098
0.104047
0.0985869
0.0936608
0.0891868
0.0851099
0.0813711
0.0779342
0.0747322
0.0717313
0.068938
0.0662811
0.212523
0.190334
0.172163
0.157099
0.144503
0.133872
0.124831
0.117046
0.110239
0.104166
0.0986874
0.0937443
0.089255
0.0851643
0.0814149
0.0779714
0.074761
0.0717545
0.0689567
0.0662954
0.212579
0.190422
0.172261
0.157195
0.14458
0.133934
0.12487
0.117078
0.110243
0.104154
0.0986546
0.0936972
0.0891894
0.0850988
0.0813358
0.0778569
0.0746348
0.0716161
0.0688066
0.0661348
0.231572
0.201234
0.177194
0.158797
0.222404
0.394265
0.223416
0.195878
0.174588
0.157456
0.144428
0.136027
0.168145
0.39264
2.39082
3.80217
3.77252
3.78359
3.41724
3.00758
0.210625
0.187332
0.16861
0.153312
0.141221
0.133792
0.149867
0.239847
3.308
2.75296
2.36358
1.77452
0.869647
0.847743
0.639738
0.210728
0.187473
0.168741
0.153482
0.141365
0.133179
0.137816
0.167793
0.264801
0.400469
0.955688
0.262135
0.232355
0.205025
0.179971
0.162818
0.149679
0.138629
0.210916
0.187744
0.169037
0.153757
0.141452
0.132609
0.130914
0.148395
0.179015
0.198875
0.202215
0.187951
0.149834
0.136865
0.125588
0.116217
0.108386
0.101475
0.09534
0.0900028
0.211107
0.18804
0.169376
0.154081
0.141643
0.132144
0.127444
0.132013
0.138036
0.139308
0.135368
0.129131
0.120799
0.113143
0.106201
0.100079
0.0946739
0.0897091
0.085136
0.0809938
0.21129
0.188328
0.169715
0.154423
0.141896
0.13203
0.125359
0.123997
0.123975
0.122798
0.118647
0.113447
0.107321
0.10157
0.0962643
0.0914086
0.0869801
0.0828481
0.0790048
0.0754811
0.21146
0.188599
0.17004
0.154768
0.142194
0.132069
0.124391
0.119877
0.116724
0.113608
0.109346
0.10477
0.0996728
0.0948136
0.0903005
0.0861127
0.0822437
0.0785983
0.0751877
0.0720184
0.211607
0.188833
0.170329
0.155089
0.142497
0.132226
0.123981
0.117967
0.113171
0.108864
0.104321
0.0997578
0.0952254
0.0906529
0.0865959
0.0827802
0.0792264
0.0758651
0.0727142
0.0697643
0.211762
0.189085
0.170631
0.155406
0.142791
0.132414
0.123862
0.117091
0.111432
0.10642
0.101595
0.0969341
0.0926021
0.0883488
0.084475
0.0808285
0.0774289
0.0742161
0.0712087
0.0683764
0.211895
0.189303
0.170897
0.155697
0.143072
0.132614
0.123887
0.11669
0.110576
0.105161
0.100122
0.0953937
0.0910633
0.0869247
0.0831499
0.079601
0.0762946
0.0731751
0.070257
0.0674969
0.212018
0.189504
0.171144
0.155969
0.143342
0.13283
0.123989
0.116548
0.110171
0.104507
0.0993163
0.0945499
0.0901714
0.0860914
0.0823561
0.0788561
0.0755985
0.0725313
0.0696654
0.0669462
0.212133
0.189691
0.171374
0.156224
0.143607
0.13305
0.124132
0.116544
0.109998
0.104172
0.0988721
0.0940502
0.0896432
0.0855733
0.0818506
0.0783814
0.0751523
0.072117
0.0692845
0.0665935
0.212239
0.189867
0.17159
0.156466
0.143881
0.133273
0.124297
0.116616
0.109954
0.104026
0.0986343
0.0937644
0.0893313
0.0852701
0.0815421
0.0780962
0.0748855
0.0718711
0.0690605
0.0663872
0.212339
0.190032
0.171793
0.156692
0.144107
0.133479
0.124468
0.116741
0.11
0.104001
0.0985526
0.0936548
0.0891987
0.0851267
0.0813944
0.0779576
0.0747544
0.0717499
0.0689513
0.0662889
0.212434
0.190187
0.171984
0.156902
0.144307
0.133678
0.124647
0.116883
0.110098
0.104048
0.0985871
0.0936607
0.0891868
0.0851083
0.0813725
0.077935
0.0747325
0.0717312
0.0689374
0.0662807
0.212523
0.190334
0.172163
0.157099
0.144503
0.133872
0.124831
0.117046
0.110239
0.104166
0.0986875
0.0937443
0.0892552
0.0851628
0.0814165
0.0779722
0.0747613
0.0717543
0.0689562
0.0662951
0.21258
0.190422
0.172261
0.157195
0.14458
0.133934
0.12487
0.117078
0.110243
0.104154
0.0986548
0.0936972
0.0891897
0.0851005
0.0813369
0.0778562
0.0746339
0.0716154
0.0688061
0.0661348
0.231573
0.201365
0.177698
0.157827
0.217619
0.390658
0.223416
0.195878
0.174588
0.157428
0.144177
0.135722
0.166543
0.40038
2.33885
3.69374
3.78435
3.8097
3.47761
3.01835
0.210623
0.187328
0.168606
0.153307
0.141217
0.133784
0.149331
0.23588
3.47513
2.66948
2.3975
1.80326
0.864821
0.838696
0.634226
0.210729
0.187472
0.168741
0.153481
0.141365
0.133179
0.137647
0.16648
0.258663
0.389652
1.0221
0.259285
0.227476
0.201692
0.178506
0.16221
0.149334
0.138156
0.210916
0.187744
0.169037
0.153756
0.141452
0.13261
0.130886
0.148149
0.17812
0.197963
0.201382
0.187404
0.149804
0.136881
0.125622
0.116227
0.108365
0.101477
0.0953538
0.0899937
0.211108
0.18804
0.169376
0.154081
0.141644
0.132144
0.127446
0.131995
0.138031
0.139343
0.13541
0.129141
0.120789
0.113164
0.106221
0.100078
0.0946521
0.089697
0.085133
0.0809899
0.21129
0.188328
0.169715
0.154425
0.141897
0.132033
0.125364
0.124006
0.123995
0.122824
0.118654
0.113432
0.107289
0.101583
0.0962844
0.0914165
0.0869745
0.0828444
0.0790063
0.0754806
0.21146
0.188599
0.17004
0.154768
0.142194
0.132073
0.124394
0.11988
0.116728
0.113613
0.109345
0.104765
0.0996638
0.0948267
0.0903097
0.0861104
0.0822349
0.0785944
0.0751889
0.0720194
0.21161
0.188836
0.17033
0.155088
0.142495
0.132226
0.123981
0.117968
0.11317
0.108863
0.104321
0.0997539
0.0952226
0.0906577
0.0865996
0.0827793
0.0792218
0.0758626
0.0727145
0.069765
0.211762
0.189085
0.170631
0.155406
0.142791
0.132414
0.123863
0.117091
0.11143
0.106419
0.101594
0.0969296
0.0926002
0.0883525
0.0844789
0.0808292
0.0774272
0.0742154
0.0712089
0.0683759
0.211895
0.189303
0.170897
0.155697
0.143072
0.132614
0.123887
0.116691
0.110575
0.105161
0.100122
0.0953926
0.0910609
0.086924
0.0831504
0.0796012
0.0762936
0.0731748
0.0702571
0.0674967
0.212018
0.189504
0.171144
0.155969
0.143342
0.13283
0.123989
0.116548
0.110171
0.104507
0.0993171
0.0945497
0.0901704
0.0860889
0.0823571
0.0788577
0.0755988
0.0725312
0.0696652
0.0669459
0.212133
0.189691
0.171375
0.156224
0.143607
0.133051
0.124132
0.116544
0.109997
0.104173
0.0988728
0.0940502
0.0896424
0.0855717
0.0818513
0.0783824
0.0751525
0.0721168
0.0692841
0.0665932
0.212239
0.189867
0.17159
0.156467
0.143881
0.133273
0.124297
0.116616
0.109954
0.104027
0.0986348
0.0937647
0.0893306
0.0852668
0.0815431
0.0780979
0.0748862
0.0718709
0.06906
0.0663868
0.212339
0.190032
0.171793
0.156693
0.144108
0.133479
0.124468
0.11674
0.11
0.104001
0.0985529
0.0936547
0.0891983
0.0851253
0.0813956
0.0779587
0.0747547
0.0717497
0.0689507
0.0662885
0.212434
0.190187
0.171984
0.156903
0.144307
0.133678
0.124647
0.116882
0.110098
0.104048
0.0985873
0.0936606
0.0891867
0.0851071
0.0813734
0.0779358
0.0747329
0.0717313
0.0689371
0.0662803
0.212523
0.190334
0.172164
0.1571
0.144504
0.133872
0.124831
0.117045
0.110239
0.104166
0.0986876
0.0937443
0.0892554
0.0851616
0.0814174
0.0779731
0.0747617
0.0717543
0.0689558
0.0662948
0.21258
0.190422
0.172261
0.157195
0.144581
0.133934
0.12487
0.117078
0.110243
0.104155
0.0986549
0.0936973
0.0891899
0.0851017
0.081338
0.077856
0.0746331
0.0716146
0.0688055
0.0661347
0.231575
0.20145
0.178255
0.157756
0.216393
0.390138
0.223416
0.195878
0.174589
0.157408
0.143927
0.135325
0.165276
0.413928
2.29244
3.57092
3.77671
3.82151
3.53435
3.03499
0.210621
0.187325
0.168603
0.153303
0.141211
0.133769
0.14896
0.233833
3.61903
2.58084
2.41611
1.83704
0.863347
0.832336
0.628835
0.210729
0.187472
0.16874
0.153481
0.141364
0.133179
0.137493
0.165361
0.25353
0.38162
1.08717
0.259384
0.224088
0.198548
0.176738
0.161381
0.148899
0.137701
0.210916
0.187744
0.169038
0.153757
0.141452
0.13261
0.130851
0.147831
0.177047
0.19677
0.200532
0.186821
0.149748
0.136879
0.125632
0.116223
0.108341
0.101472
0.0953622
0.0899888
0.211108
0.18804
0.169376
0.154081
0.141644
0.132144
0.127443
0.131947
0.13798
0.139329
0.135429
0.129141
0.120777
0.113179
0.10624
0.100082
0.0946365
0.0896833
0.085127
0.0809854
0.211291
0.188328
0.169715
0.154426
0.141897
0.132035
0.125368
0.124008
0.124005
0.122842
0.118661
0.11342
0.107263
0.101587
0.0962982
0.0914246
0.0869721
0.0828412
0.0790066
0.0754801
0.21146
0.188599
0.17004
0.154768
0.142195
0.132076
0.124396
0.119882
0.116732
0.113618
0.109345
0.104759
0.0996561
0.0948359
0.0903184
0.0861102
0.0822279
0.0785897
0.0751885
0.07202
0.211612
0.188839
0.170332
0.155087
0.142493
0.132226
0.123982
0.117968
0.11317
0.108861
0.104321
0.0997509
0.0952189
0.0906605
0.0866032
0.0827797
0.0792185
0.0758598
0.072714
0.0697653
0.211762
0.189085
0.170631
0.155406
0.14279
0.132415
0.123863
0.117091
0.111429
0.106418
0.101594
0.0969254
0.0925977
0.0883548
0.0844823
0.0808304
0.077426
0.0742146
0.071209
0.0683755
0.211895
0.189303
0.170898
0.155697
0.143072
0.132614
0.123887
0.116691
0.110574
0.10516
0.100123
0.0953918
0.0910587
0.086923
0.0831507
0.0796014
0.0762929
0.0731743
0.0702571