/*--------------------------------*- C++ -*----------------------------------*\
  =========                 |
  \\      /  F ield         | OpenFOAM: The Open Source CFD Toolbox
   \\    /   O peration     | Website:  https://openfoam.org
    \\  /    A nd           | Version:  10
     \\/     M anipulation  |
\*---------------------------------------------------------------------------*/
FoamFile
{
    format      ascii;
    class       volScalarField;
    location    "2000";
    object      nut;
}
// * * * * * * * * * * * * * * * * * * * * * * * * * * * * * * * * * * * * * //

dimensions      [0 2 -1 0 0 0 0];

internalField   nonuniform List<scalar> 
55398
(
0.133689
0.110728
0.0865164
0.0649344
0.0709062
0.0863103
0.134317
0.133277
0.132491
0.131079
0.124289
0.114155
0.101143
0.115127
0.211286
0.551693
0.734156
0.857434
0.957262
1.01701
0.133754
0.13281
0.132098
0.131612
0.131409
0.130459
0.1255
0.125172
0.200183
0.548594
0.536667
0.584205
0.56735
0.482013
0.44962
0.133689
0.132705
0.131923
0.131398
0.131334
0.132056
0.132531
0.132747
0.11958
0.0622886
0.148905
0.148432
0.135784
0.133254
0.133551
0.142164
0.143427
0.150662
0.133653
0.132629
0.131788
0.131179
0.130969
0.131727
0.133704
0.138529
0.137132
0.124675
0.114734
0.118931
0.128158
0.133553
0.134541
0.134887
0.134998
0.135309
0.13547
0.135802
0.133632
0.132584
0.1317
0.131018
0.130661
0.131035
0.132898
0.136789
0.13955
0.139513
0.140291
0.141025
0.140974
0.140682
0.140191
0.13975
0.139361
0.138755
0.138324
0.137837
0.13362
0.132556
0.131643
0.130907
0.130433
0.130482
0.131568
0.134425
0.136869
0.138306
0.139169
0.139187
0.138854
0.138158
0.137527
0.137018
0.136588
0.13593
0.135417
0.134917
0.133613
0.132538
0.131605
0.130832
0.130274
0.130081
0.130598
0.132216
0.133875
0.135094
0.135622
0.135655
0.135341
0.134704
0.134152
0.133648
0.133235
0.132645
0.132172
0.131711
0.133605
0.132524
0.131579
0.13078
0.130161
0.129807
0.12991
0.130693
0.131593
0.132285
0.132533
0.132442
0.132098
0.131566
0.131099
0.130697
0.130339
0.129862
0.129447
0.129035
0.133606
0.132518
0.13156
0.130738
0.130077
0.129627
0.129479
0.129751
0.130113
0.130348
0.130345
0.130169
0.129847
0.129392
0.128994
0.128633
0.128302
0.127893
0.127535
0.127179
0.133605
0.132512
0.131547
0.130709
0.130017
0.129499
0.129198
0.129159
0.129185
0.129134
0.128948
0.12868
0.128345
0.127919
0.127543
0.127199
0.126895
0.126531
0.126207
0.12587
0.133604
0.132509
0.131537
0.130688
0.129972
0.129409
0.129013
0.128786
0.128607
0.128383
0.128076
0.127718
0.127355
0.126969
0.126605
0.126272
0.125968
0.125628
0.125321
0.124989
0.133604
0.132507
0.131531
0.130673
0.12994
0.129342
0.128882
0.128544
0.128243
0.127905
0.127516
0.127109
0.126716
0.126328
0.125963
0.125629
0.125324
0.124999
0.124703
0.124377
0.133604
0.132506
0.131526
0.130662
0.129918
0.129292
0.128789
0.128382
0.128003
0.127598
0.127144
0.126698
0.126282
0.125887
0.125523
0.125191
0.124885
0.12457
0.124281
0.123958
0.133605
0.132506
0.131524
0.130654
0.129899
0.129258
0.128724
0.128278
0.127847
0.127398
0.126905
0.126434
0.125999
0.1256
0.125235
0.1249
0.124591
0.124279
0.123993
0.123673
0.133606
0.132507
0.131523
0.130649
0.129886
0.129233
0.12868
0.128203
0.127744
0.127265
0.126767
0.126282
0.125836
0.125431
0.125064
0.124725
0.124414
0.124102
0.123818
0.123501
0.133607
0.132508
0.131523
0.130646
0.129877
0.129215
0.12865
0.128154
0.127682
0.127191
0.126682
0.12619
0.125735
0.125324
0.124949
0.124604
0.124285
0.123966
0.123675
0.123351
0.133599
0.132489
0.131491
0.130599
0.129813
0.129132
0.128543
0.12803
0.127532
0.127023
0.126492
0.125985
0.125513
0.125084
0.124693
0.124327
0.123985
0.123646
0.123334
0.122992
0.13399
0.117776
0.0965312
0.0698168
0.0669838
0.080958
0.134315
0.133275
0.132509
0.131389
0.125847
0.11672
0.102014
0.104973
0.351925
0.609695
0.755258
0.802715
0.925361
0.808266
0.133752
0.132809
0.132097
0.131615
0.131456
0.130922
0.127036
0.126028
0.150426
0.536136
0.549296
0.566007
0.455888
0.482589
0.431076
0.133688
0.132705
0.13192
0.131391
0.131332
0.132123
0.133202
0.133182
0.105723
0.062275
0.146089
0.137663
0.13669
0.134534
0.134028
0.140545
0.143026
0.1485
0.133653
0.132629
0.131786
0.131173
0.130959
0.131706
0.133776
0.138651
0.137463
0.126805
0.118975
0.119218
0.130706
0.133299
0.134693
0.13511
0.135246
0.135496
0.13565
0.135892
0.133632
0.132584
0.131699
0.131014
0.130653
0.131001
0.132833
0.136631
0.139516
0.139582
0.140519
0.141022
0.14095
0.140557
0.140071
0.139694
0.139312
0.13868
0.138166
0.137598
0.133621
0.132556
0.131643
0.130905
0.130428
0.130458
0.131475
0.134277
0.136702
0.138233
0.139088
0.139149
0.138852
0.138146
0.137518
0.136957
0.136501
0.135873
0.135284
0.134674
0.133613
0.132538
0.131605
0.130831
0.130271
0.130066
0.130529
0.132097
0.133728
0.13498
0.135525
0.135596
0.135325
0.134688
0.134131
0.1336
0.133166
0.132601
0.132073
0.131527
0.133606
0.132524
0.131579
0.130778
0.130159
0.129805
0.129898
0.130628
0.1315
0.132201
0.132455
0.132385
0.132059
0.131552
0.13109
0.130663
0.130294
0.129832
0.129387
0.128921
0.133606
0.132518
0.13156
0.130738
0.130076
0.129626
0.129474
0.129714
0.130058
0.130299
0.130296
0.130127
0.129819
0.129386
0.128989
0.128612
0.128274
0.127874
0.127496
0.127101
0.133605
0.132512
0.131547
0.130709
0.130016
0.1295
0.129196
0.12914
0.129156
0.129107
0.12892
0.128637
0.128312
0.127914
0.127541
0.127189
0.126877
0.12652
0.126184
0.125823
0.133604
0.132509
0.131537
0.130688
0.129972
0.129408
0.12901
0.128778
0.128597
0.128368
0.128061
0.127696
0.127335
0.12697
0.126597
0.126264
0.125958
0.125622
0.125307
0.124961
0.133604
0.132507
0.131531
0.130673
0.129939
0.129341
0.12888
0.12854
0.128238
0.127897
0.127507
0.127096
0.126704
0.126327
0.125963
0.125626
0.125318
0.124995
0.124696
0.124361
0.133604
0.132506
0.131526
0.130662
0.129918
0.129293
0.128789
0.128381
0.128001
0.127594
0.12714
0.126692
0.126279
0.125888
0.125523
0.125189
0.124882
0.124567
0.124277
0.123949
0.133605
0.132506
0.131524
0.130654
0.129899
0.129259
0.128725
0.128278
0.127846
0.127396
0.126903
0.126432
0.125997
0.1256
0.125235
0.124899
0.124589
0.124278
0.123991
0.123669
0.133606
0.132507
0.131523
0.130649
0.129886
0.129234
0.12868
0.128203
0.127743
0.127264
0.126766
0.126281
0.125835
0.125431
0.125064
0.124725
0.124412
0.124102
0.123817
0.123498
0.133607
0.132508
0.131522
0.130646
0.129877
0.129215
0.12865
0.128154
0.127682
0.12719
0.126681
0.126189
0.125735
0.125324
0.124948
0.124603
0.124284
0.123966
0.123674
0.123349
0.133599
0.132489
0.131491
0.130599
0.129813
0.129131
0.128542
0.12803
0.127531
0.127023
0.126492
0.125985
0.125513
0.125084
0.124693
0.124326
0.123985
0.123646
0.123334
0.122992
0.134169
0.120919
0.10001
0.0741761
0.0653643
0.076018
0.134315
0.133279
0.132516
0.131337
0.125916
0.117264
0.102389
0.111007
0.396769
0.63563
0.7335
0.726259
0.908556
0.820024
0.133752
0.132809
0.132097
0.131616
0.13146
0.131009
0.126874
0.128342
0.169517
0.539654
0.55559
0.560201
0.444142
0.466662
0.426986
0.133688
0.132705
0.131921
0.131392
0.131334
0.132128
0.133105
0.133555
0.108405
0.074054
0.134341
0.135079
0.136545
0.135447
0.134607
0.139521
0.142647
0.147298
0.133653
0.132628
0.131786
0.131173
0.13096
0.131704
0.133782
0.13861
0.136857
0.126035
0.119372
0.120457
0.130788
0.133227
0.134599
0.135188
0.135444
0.135645
0.135733
0.135872
0.133633
0.132584
0.131699
0.131015
0.130654
0.130997
0.132845
0.136634
0.139433
0.139441
0.140487
0.141027
0.140856
0.14039
0.140022
0.139678
0.139268
0.138621
0.138119
0.137579
0.133621
0.132556
0.131643
0.130906
0.130428
0.130456
0.131489
0.13428
0.136698
0.138208
0.139075
0.139172
0.138871
0.138091
0.13749
0.136951
0.136434
0.135745
0.135162
0.134638
0.133613
0.132538
0.131605
0.130831
0.130271
0.130066
0.130535
0.132098
0.133733
0.134975
0.13552
0.135597
0.135329
0.13465
0.1341
0.133595
0.133113
0.132503
0.131984
0.131501
0.133607
0.132524
0.131578
0.130778
0.130159
0.129806
0.129897
0.130632
0.131505
0.132202
0.132447
0.132384
0.132072
0.13153
0.131073
0.130657
0.130258
0.129767
0.129331
0.128907
0.133606
0.132518
0.13156
0.130738
0.130076
0.129626
0.129474
0.129715
0.130058
0.130301
0.130292
0.1301
0.129804
0.129369
0.128977
0.128608
0.128251
0.127833
0.12746
0.127087
0.133605
0.132512
0.131547
0.130709
0.130016
0.129499
0.129197
0.129141
0.129156
0.129109
0.128918
0.128626
0.128313
0.127905
0.127535
0.127188
0.126863
0.126496
0.126163
0.125815
0.133604
0.132509
0.131537
0.130688
0.129972
0.129408
0.12901
0.128778
0.128597
0.128369
0.128059
0.127693
0.127337
0.126954
0.126581
0.126259
0.125949
0.125607
0.125295
0.124956
0.133604
0.132507
0.131531
0.130673
0.129939
0.129341
0.12888
0.12854
0.128238
0.127897
0.127506
0.127094
0.126705
0.126318
0.125952
0.125621
0.125312
0.124987
0.124688
0.124358
0.133604
0.132506
0.131526
0.130662
0.129918
0.129293
0.12879
0.128381
0.128001
0.127594
0.127139
0.126691
0.126278
0.125889
0.125521
0.125187
0.124879
0.124562
0.124272
0.123947
0.133605
0.132506
0.131524
0.130654
0.129899
0.129259
0.128725
0.128278
0.127846
0.127396
0.126903
0.126432
0.125998
0.1256
0.125234
0.124898
0.124587
0.124275
0.123989
0.123668
0.133606
0.132507
0.131523
0.130649
0.129886
0.129234
0.12868
0.128203
0.127744
0.127264
0.126766
0.126281
0.125835
0.125431
0.125064
0.124724
0.124412
0.1241
0.123816
0.123498
0.133607
0.132508
0.131523
0.130646
0.129877
0.129215
0.12865
0.128154
0.127682
0.12719
0.126681
0.126189
0.125735
0.125324
0.124947
0.124602
0.124283
0.123964
0.123672
0.123349
0.133599
0.132489
0.131491
0.130599
0.129813
0.129131
0.128542
0.12803
0.127531
0.127023
0.126492
0.125984
0.125512
0.125084
0.124693
0.124326
0.123985
0.123646
0.123334
0.122992
0.13426
0.123761
0.102401
0.0771241
0.0615694
0.0735938
0.134315
0.133283
0.132522
0.13123
0.125636
0.117328
0.101847
0.109362
0.412664
0.656045
0.724736
0.733058
0.899182
0.806761
0.133752
0.132808
0.132097
0.131616
0.131462
0.131076
0.126655
0.127763
0.163413
0.546434
0.563363
0.558765
0.439516
0.458306
0.425065
0.133688
0.132705
0.131921
0.131392
0.131335
0.132135
0.132999
0.133735
0.104735
0.0825014
0.119957
0.131644
0.13543
0.135803
0.135121
0.138969
0.142331
0.146393
0.133653
0.132629
0.131786
0.131173
0.130961
0.131702
0.133772
0.138626
0.136989
0.125546
0.11888
0.121081
0.130562
0.132721
0.134339
0.135177
0.13554
0.135692
0.135778
0.135859
0.133633
0.132584
0.131699
0.131015
0.130655
0.130994
0.132854
0.13664
0.139347
0.139279
0.140407
0.141023
0.140852
0.140388
0.140006
0.139661
0.139266
0.138663
0.138127
0.137582
0.133621
0.132556
0.131643
0.130906
0.130428
0.130454
0.131503
0.134286
0.136689
0.138177
0.139056
0.139194
0.138748
0.137959
0.137466
0.136941
0.136422
0.135767
0.135168
0.134627
0.133613
0.132537
0.131605
0.130831
0.130272
0.130066
0.13054
0.1321
0.133736
0.134971
0.135518
0.135611
0.135213
0.134535
0.134073
0.133585
0.133103
0.132521
0.13199
0.131495
0.133608
0.132524
0.131578
0.130777
0.130159
0.129806
0.129896
0.130634
0.13151
0.132204
0.132446
0.132383
0.132042
0.131485
0.131065
0.130652
0.130251
0.129777
0.129335
0.128905
0.133607
0.132518
0.13156
0.130738
0.130077
0.129626
0.129474
0.129716
0.13006
0.130303
0.130292
0.130098
0.12979
0.129341
0.128972
0.128605
0.128247
0.12784
0.127461
0.127082
0.133605
0.132512
0.131547
0.130709
0.130016
0.129499
0.129197
0.129142
0.129157
0.12911
0.128918
0.128621
0.128301
0.127888
0.127533
0.127188
0.12686
0.1265
0.126164
0.125812
0.133604
0.132509
0.131537
0.130688
0.129972
0.129408
0.12901
0.128778
0.128598
0.12837
0.128059
0.127691
0.12733
0.126942
0.126585
0.126257
0.125946
0.125609
0.125296
0.124954
0.133604
0.132507
0.131531
0.130673
0.129939
0.129341
0.12888
0.128541
0.128238
0.127898
0.127506
0.127092
0.1267
0.126311
0.125954
0.125621
0.125311
0.124987
0.124688
0.124357
0.133604
0.132506
0.131526
0.130662
0.129918
0.129294
0.12879
0.128381
0.128001
0.127594
0.127138
0.12669
0.126274
0.125882
0.125515
0.125186
0.124878
0.124563
0.124272
0.123947
0.133605
0.132506
0.131524
0.130654
0.1299
0.129259
0.128725
0.128278
0.127846
0.127396
0.126902
0.126431
0.125996
0.125596
0.125231
0.124897
0.124587
0.124275
0.123989
0.123668
0.133606
0.132507
0.131523
0.130649
0.129886
0.129233
0.12868
0.128203
0.127744
0.127264
0.126766
0.126281
0.125834
0.125429
0.125061
0.124724
0.124411
0.1241
0.123815
0.123498
0.133607
0.132508
0.131523
0.130646
0.129877
0.129215
0.12865
0.128154
0.127682
0.12719
0.126681
0.126189
0.125735
0.125322
0.124945
0.124602
0.124282
0.123964
0.123672
0.123348
0.133599
0.132489
0.131491
0.130599
0.129813
0.129131
0.128543
0.12803
0.127531
0.127023
0.126492
0.125984
0.125512
0.125084
0.124693
0.124326
0.123984
0.123646
0.123334
0.122992
0.134302
0.126357
0.105325
0.0802719
0.0577202
0.0719891
0.134316
0.133286
0.132529
0.131179
0.125328
0.117369
0.101632
0.10537
0.423057
0.678842
0.721148
0.738568
0.898026
0.790689
0.133752
0.132808
0.132096
0.131615
0.131462
0.131134
0.126528
0.126377
0.160578
0.547456
0.571515
0.558953
0.435063
0.451958
0.423232
0.133688
0.132705
0.131921
0.131393
0.131336
0.132143
0.132916
0.133701
0.101086
0.0822828
0.109462
0.127609
0.133489
0.135521
0.135439
0.138658
0.142041
0.145654
0.133653
0.132629
0.131786
0.131174
0.130962
0.131701
0.133758
0.138724
0.137866
0.126041
0.118778
0.121364
0.130399
0.13234
0.134049
0.135093
0.135589
0.135743
0.135824
0.135861
0.133633
0.132584
0.131699
0.131015
0.130655
0.130992
0.132859
0.136656
0.139303
0.13914
0.140304
0.140995
0.140849
0.140387
0.139992
0.139642
0.139258
0.138692
0.138141
0.137586
0.133621
0.132556
0.131643
0.130907
0.130429
0.130452
0.131512
0.134293
0.13668
0.138141
0.139029
0.139197
0.138738
0.138031
0.137466
0.136933
0.136411
0.135782
0.135177
0.134621
0.133614
0.132537
0.131605
0.130831
0.130272
0.130066
0.130544
0.132102
0.133737
0.134966
0.135513
0.13562
0.135201
0.134582
0.134064
0.133574
0.133093
0.132534
0.131998
0.131492
0.133608
0.132524
0.131578
0.130777
0.130159
0.129806
0.129896
0.130635
0.131513
0.132206
0.132445
0.132382
0.132042
0.131496
0.131063
0.130647
0.130244
0.129784
0.12934
0.128904
0.133607
0.132518
0.13156
0.130738
0.130077
0.129626
0.129474
0.129717
0.130061
0.130305
0.130292
0.130097
0.129793
0.129349
0.128971
0.128602
0.128243
0.127844
0.127464
0.127078
0.133605
0.132512
0.131547
0.130709
0.130016
0.129499
0.129197
0.129142
0.129158
0.129112
0.128918
0.128617
0.128299
0.127892
0.127533
0.127187
0.126858
0.126502
0.126165
0.12581
0.133604
0.132509
0.131537
0.130688
0.129972
0.129408
0.12901
0.128779
0.128598
0.12837
0.128059
0.12769
0.127329
0.126942
0.126587
0.126256
0.125944
0.12561
0.125296
0.124953
0.133604
0.132507
0.131531
0.130673
0.129939
0.129341
0.12888
0.128541
0.128238
0.127898
0.127506
0.127091
0.126699
0.12631
0.125955
0.125621
0.12531
0.124988
0.124689
0.124356
0.133604
0.132506
0.131526
0.130662
0.129918
0.129294
0.12879
0.128381
0.128001
0.127595
0.127138
0.126689
0.126273
0.12588
0.125518
0.125186
0.124877
0.124563
0.124272
0.123946
0.133605
0.132506
0.131524
0.130654
0.1299
0.129259
0.128725
0.128278
0.127846
0.127396
0.126902
0.126431
0.125996
0.125596
0.125232
0.124897
0.124586
0.124275
0.123989
0.123668
0.133606
0.132507
0.131523
0.130649
0.129887
0.129233
0.12868
0.128203
0.127744
0.127264
0.126766
0.126281
0.125834
0.125429
0.125061
0.124724
0.124411
0.1241
0.123815
0.123498
0.133607
0.132508
0.131523
0.130646
0.129877
0.129215
0.12865
0.128154
0.127682
0.12719
0.126681
0.126189
0.125735
0.125321
0.124945
0.124602
0.124282
0.123964
0.123672
0.123348
0.133599
0.132489
0.131491
0.130599
0.129813
0.129131
0.128543
0.12803
0.127531
0.127023
0.126492
0.125984
0.125512
0.125084
0.124692
0.124326
0.123984
0.123646
0.123334
0.122992
0.13432
0.128358
0.108588
0.083218
0.0546285
0.0704486
0.134316
0.133288
0.132536
0.131177
0.125032
0.117361
0.101597
0.0998576
0.428975
0.706016
0.723869
0.740999
0.904367
0.777511
0.133751
0.132808
0.132095
0.131613
0.13146
0.131182
0.126471
0.125237
0.164792
0.541325
0.579624
0.56124
0.431119
0.446549
0.421131
0.133688
0.132705
0.131921
0.131393
0.131336
0.132153
0.132857
0.133493
0.0993172
0.0798786
0.109997
0.12365
0.130987
0.134633
0.135454
0.138434
0.141778
0.145039
0.133653
0.132629
0.131786
0.131174
0.130963
0.131701
0.133741
0.138858
0.139032
0.127228
0.119325
0.121573
0.130295
0.132056
0.133764
0.134956
0.13559
0.135784
0.135869
0.135874
0.133633
0.132584
0.131699
0.131015
0.130656
0.13099
0.13286
0.136683
0.139321
0.139065
0.140204
0.140945
0.140839
0.140388
0.13998
0.139622
0.139246
0.138711
0.138155
0.137592
0.133621
0.132556
0.131643
0.130907
0.130429
0.130451
0.131519
0.1343
0.136675
0.138108
0.138995
0.139186
0.138726
0.138075
0.137477
0.13693
0.136401
0.135791
0.135185
0.134617
0.133614
0.132538
0.131605
0.130831
0.130272
0.130066
0.130547
0.132104
0.133736
0.13496
0.135505
0.135624
0.135192
0.13461
0.134064
0.133565
0.133083
0.13254
0.132005
0.131491
0.133608
0.132524
0.131578
0.130777
0.130159
0.129806
0.129896
0.130636
0.131515
0.132207
0.132444
0.13238
0.132041
0.131505
0.131063
0.130643
0.130237
0.129787
0.129344
0.128905
0.133607
0.132518
0.13156
0.130738
0.130077
0.129627
0.129474
0.129717
0.130062
0.130306
0.130293
0.130096
0.129795
0.129356
0.128971
0.1286
0.12824
0.127846
0.127466
0.127076
0.133605
0.132512
0.131547
0.130709
0.130016
0.129499
0.129197
0.129143
0.129159
0.129113
0.128918
0.128614
0.128296
0.127893
0.127533
0.127186
0.126856
0.126504
0.126167
0.125808
0.133604
0.132509
0.131537
0.130688
0.129972
0.129408
0.12901
0.128779
0.128598
0.128371
0.128059
0.127688
0.127328
0.126942
0.126589
0.126256
0.125942
0.125611
0.125297
0.124953
0.133604
0.132507
0.131531
0.130673
0.129939
0.129341
0.128881
0.128541
0.128239
0.127899
0.127506
0.12709
0.126698
0.126309
0.125956
0.125621
0.125309
0.124988
0.124689
0.124356
0.133604
0.132506
0.131527
0.130662
0.129917
0.129294
0.12879
0.128381
0.128002
0.127595
0.127138
0.126688
0.126271
0.125879
0.12552
0.125186
0.124877
0.124563
0.124272
0.123946
0.133605
0.132506
0.131524
0.130654
0.1299
0.129259
0.128725
0.128278
0.127846
0.127397
0.126902
0.126431
0.125995
0.125595
0.125232
0.124897
0.124586
0.124275
0.123989
0.123668
0.133606
0.132507
0.131523
0.130649
0.129887
0.129233
0.12868
0.128203
0.127744
0.127264
0.126766
0.126281
0.125834
0.125429
0.125061
0.124724
0.124411
0.1241
0.123815
0.123497
0.133607
0.132508
0.131523
0.130646
0.129877
0.129215
0.12865
0.128154
0.127682
0.12719
0.126681
0.126189
0.125735
0.12532
0.124945
0.124602
0.124282
0.123963
0.123672
0.123348
0.133599
0.132489
0.131491
0.130599
0.129813
0.129131
0.128543
0.12803
0.127532
0.127023
0.126492
0.125984
0.125512
0.125084
0.124692
0.124325
0.123984
0.123646
0.123334
0.122992
0.134326
0.129718
0.1119
0.0859755
0.0523216
0.0689847
0.134316
0.133289
0.132543
0.131209
0.1248
0.117302
0.101648
0.0992916
0.431844
0.725191
0.73308
0.743119
0.915115
0.768901
0.133751
0.132808
0.132095
0.131612
0.131455
0.13122
0.12645
0.124434
0.17442
0.528807
0.586594
0.56555
0.427986
0.441972
0.418715
0.133688
0.132705
0.13192
0.131393
0.131336
0.132162
0.132818
0.133238
0.0967615
0.0795207
0.117455
0.12054
0.128334
0.13327
0.135125
0.138182
0.141521
0.144517
0.133653
0.132629
0.131786
0.131174
0.130963
0.131702
0.133726
0.13898
0.140072
0.128686
0.120306
0.121912
0.130243
0.131851
0.133505
0.134786
0.135548
0.135805
0.135909
0.135893
0.133633
0.132584
0.131699
0.131015
0.130656
0.130989
0.132858
0.136716
0.139397
0.139075
0.140134
0.140884
0.140819
0.140388
0.139971
0.139604
0.139232
0.13872
0.138168
0.1376
0.133621
0.132556
0.131643
0.130907
0.130429
0.130449
0.131523
0.134308
0.136679
0.138085
0.138961
0.139163
0.13871
0.138102
0.137491
0.136931
0.136393
0.135795
0.135192
0.134616
0.133614
0.132538
0.131605
0.130831
0.130272
0.130065
0.130549
0.132107
0.133736
0.134953
0.135496
0.135624
0.135187
0.13463
0.134068
0.133559
0.133073
0.132542
0.132011
0.131492
0.133609
0.132525
0.131578
0.130776
0.130159
0.129806
0.129895
0.130636
0.131516
0.132207
0.132444
0.132378
0.132039
0.131511
0.131065
0.130641
0.130232
0.129787
0.129347
0.128906
0.133607
0.132518
0.13156
0.130738
0.130077
0.129627
0.129474
0.129717
0.130062
0.130307
0.130293
0.130095
0.129796
0.129361
0.128972
0.128598
0.128236
0.127847
0.127468
0.127075
0.133605
0.132512
0.131547
0.130709
0.130016
0.129499
0.129197
0.129143
0.129159
0.129114
0.128919
0.128612
0.128294
0.127894
0.127533
0.127186
0.126855
0.126504
0.126168
0.125808
0.133604
0.132509
0.131538
0.130688
0.129972
0.129408
0.12901
0.128779
0.128598
0.128372
0.128059
0.127688
0.127327
0.126942
0.126591
0.126256
0.12594
0.125611
0.125298
0.124952
0.133604
0.132507
0.131531
0.130673
0.129939
0.129341
0.128881
0.128541
0.128239
0.127899
0.127506
0.12709
0.126697
0.126309
0.125956
0.125621
0.125308
0.124988
0.124689
0.124356
0.133604
0.132506
0.131527
0.130662
0.129917
0.129294
0.12879
0.128381
0.128002
0.127595
0.127138
0.126688
0.12627
0.125878
0.125521
0.125187
0.124876
0.124562
0.124272
0.123946
0.133605
0.132506
0.131524
0.130654
0.1299
0.129259
0.128725
0.128278
0.127846
0.127397
0.126902
0.12643
0.125995
0.125595
0.125233
0.124898
0.124586
0.124274
0.123988
0.123667
0.133606
0.132507
0.131523
0.130649
0.129887
0.129233
0.12868
0.128203
0.127744
0.127264
0.126766
0.12628
0.125834
0.125428
0.125062
0.124724
0.124411
0.1241
0.123815
0.123497
0.133607
0.132508
0.131523
0.130646
0.129877
0.129215
0.12865
0.128154
0.127682
0.12719
0.126681
0.126189
0.125735
0.12532
0.124946
0.124602
0.124282
0.123963
0.123672
0.123348
0.133599
0.132489
0.131491
0.130599
0.129813
0.129131
0.128543
0.12803
0.127532
0.127023
0.126492
0.125984
0.125512
0.125084
0.124692
0.124325
0.123984
0.123646
0.123334
0.122992
0.134329
0.130559
0.11497
0.0886194
0.0507644
0.0678155
0.134316
0.133291
0.13255
0.131263
0.124659
0.117205
0.101705
0.101791
0.433303
0.728077
0.748084
0.747382
0.927848
0.764869
0.133751
0.132808
0.132094
0.13161
0.131449
0.131249
0.126442
0.123687
0.186932
0.511787
0.591361
0.571382
0.425863
0.438259
0.416093
0.133688
0.132705
0.13192
0.131393
0.131335
0.132171
0.132794
0.132995
0.0936833
0.0804732
0.125036
0.118645
0.125937
0.131639
0.134474
0.137833
0.141245
0.144058
0.133653
0.132629
0.131786
0.131174
0.130964
0.131702
0.133712
0.139063
0.140784
0.130111
0.121436
0.122457
0.130252
0.131718
0.133284
0.134601
0.135471
0.135803
0.135938
0.135914
0.133633
0.132584
0.131699
0.131015
0.130657
0.130987
0.132855
0.136749
0.139513
0.139169
0.140115
0.140828
0.140788
0.140386
0.139964
0.139588
0.139216
0.138722
0.138176
0.137607
0.133621
0.132556
0.131643
0.130907
0.13043
0.130448
0.131525
0.134318
0.136693
0.138076
0.138931
0.139135
0.13869
0.138115
0.137504
0.136935
0.136389
0.135796
0.135197
0.134616
0.133614
0.132538
0.131605
0.130831
0.130272
0.130065
0.130551
0.132109
0.133736
0.134948
0.135487
0.13562
0.135184
0.134643
0.134074
0.133556
0.133064
0.132541
0.132015
0.131494
0.133609
0.132525
0.131578
0.130776
0.130159
0.129806
0.129895
0.130636
0.131516
0.132206
0.132444
0.132376
0.132037
0.131516
0.131068
0.130639
0.130227
0.129786
0.12935
0.128907
0.133607
0.132518
0.13156
0.130738
0.130077
0.129627
0.129474
0.129717
0.130062
0.130307
0.130293
0.130093
0.129797
0.129365
0.128975
0.128598
0.128234
0.127846
0.127469
0.127075
0.133605
0.132512
0.131547
0.130709
0.130016
0.129499
0.129197
0.129143
0.129159
0.129115
0.12892
0.12861
0.128292
0.127894
0.127533
0.127186
0.126853
0.126504
0.126169
0.125807
0.133604
0.132509
0.131538
0.130688
0.129972
0.129408
0.12901
0.128779
0.128598
0.128372
0.128059
0.127687
0.127326
0.126942
0.126592
0.126256
0.125939
0.12561
0.125298
0.124952
0.133604
0.132507
0.131531
0.130673
0.129939
0.129341
0.128881
0.128541
0.128239
0.1279
0.127506
0.127089
0.126696
0.126308
0.125957
0.125622
0.125308
0.124988
0.124689
0.124355
0.133604
0.132506
0.131527
0.130662
0.129917
0.129293
0.12879
0.128381
0.128002
0.127596
0.127138
0.126687
0.126269
0.125877
0.125521
0.125188
0.124876
0.124562
0.124272
0.123945
0.133605
0.132506
0.131524
0.130654
0.1299
0.129259
0.128724
0.128278
0.127846
0.127397
0.126902
0.12643
0.125994
0.125594
0.125233
0.124898
0.124586
0.124274
0.123988
0.123667
0.133606
0.132507
0.131523
0.130649
0.129887
0.129233
0.12868
0.128203
0.127744
0.127264
0.126766
0.12628
0.125834
0.125428
0.125062
0.124725
0.124411
0.1241
0.123815
0.123497
0.133607
0.132508
0.131523
0.130646
0.129877
0.129215
0.12865
0.128154
0.127682
0.12719
0.126681
0.126189
0.125735
0.12532
0.124946
0.124603
0.124282
0.123963
0.123671
0.123348
0.133599
0.132489
0.131491
0.130599
0.129813
0.129131
0.128543
0.12803
0.127532
0.127023
0.126492
0.125984
0.125512
0.125084
0.124692
0.124325
0.123984
0.123645
0.123334
0.122992
0.13433
0.131041
0.117583
0.0911577
0.0499243
0.0670225
0.134316
0.133291
0.132556
0.131328
0.124609
0.117096
0.101726
0.10366
0.435009
0.724888
0.768492
0.754342
0.928014
0.764261
0.133751
0.132808
0.132094
0.131609
0.131443
0.131268
0.126445
0.12282
0.201403
0.492777
0.593035
0.577964
0.4248
0.435474
0.41343
0.133688
0.132705
0.13192
0.131392
0.131335
0.132178
0.132782
0.132755
0.0911589
0.0812126
0.130511
0.117889
0.12403
0.129946
0.133566
0.137352
0.140923
0.143634
0.133653
0.132628
0.131785
0.131174
0.130964
0.131703
0.133702
0.139097
0.141142
0.131335
0.122579
0.123177
0.130341
0.131657
0.133112
0.13442
0.135367
0.135777
0.135954
0.135934
0.133633
0.132584
0.131699
0.131015
0.130657
0.130986
0.132852
0.136775
0.139643
0.13933
0.140155
0.140793
0.140755
0.14038
0.139958
0.139575
0.139201
0.138719
0.138182
0.137613
0.133621
0.132556
0.131643
0.130907
0.13043
0.130447
0.131525
0.134327
0.136716
0.138085
0.138911
0.139106
0.138667
0.138119
0.137513
0.136939
0.136386
0.135796
0.135201
0.134617
0.133614
0.132538
0.131605
0.130831
0.130272
0.130064
0.130551
0.132112
0.133738
0.134944
0.135479
0.135614
0.13518
0.134653
0.134081
0.133554
0.133057
0.132538
0.132017
0.131495
0.133609
0.132525
0.131578
0.130776
0.130159
0.129806
0.129895
0.130636
0.131515
0.132204
0.132443
0.132374
0.132034
0.131519
0.131071
0.130639
0.130223
0.129784
0.12935
0.128907
0.133607
0.132518
0.13156
0.130738
0.130077
0.129627
0.129474
0.129717
0.130061
0.130307
0.130293
0.130091
0.129796
0.129368
0.128977
0.128597
0.128231
0.127846
0.12747
0.127074
0.133605
0.132512
0.131547
0.130709
0.130016
0.129499
0.129197
0.129142
0.129159
0.129115
0.12892
0.128609
0.128289
0.127894
0.127534
0.127185
0.126852
0.126504
0.12617
0.125807
0.133604
0.132509
0.131538
0.130688
0.129972
0.129408
0.12901
0.128778
0.128598
0.128372
0.12806
0.127686
0.127325
0.126942
0.126593
0.126257
0.125938
0.12561
0.125298
0.124952
0.133604
0.132507
0.131531
0.130673
0.12994
0.129341
0.128881
0.128541
0.128239
0.1279
0.127507
0.127089
0.126695
0.126308
0.125957
0.125622
0.125307
0.124988
0.124689
0.124355
0.133604
0.132506
0.131527
0.130662
0.129917
0.129293
0.12879
0.128381
0.128002
0.127596
0.127139
0.126687
0.126268
0.125876
0.125522
0.125188
0.124876
0.124562
0.124272
0.123945
0.133605
0.132506
0.131524
0.130654
0.1299
0.129259
0.128724
0.128278
0.127846
0.127397
0.126902
0.12643
0.125994
0.125594
0.125234
0.124899
0.124586
0.124274
0.123988
0.123667
0.133606
0.132507
0.131523
0.130649
0.129887
0.129233
0.12868
0.128203
0.127744
0.127264
0.126766
0.12628
0.125833
0.125427
0.125063
0.124725
0.124411
0.1241
0.123815
0.123497
0.133607
0.132508
0.131523
0.130646
0.129877
0.129215
0.12865
0.128154
0.127683
0.12719
0.126681
0.126189
0.125734
0.125319
0.124947
0.124603
0.124282
0.123963
0.123671
0.123348
0.133599
0.132489
0.131491
0.130599
0.129813
0.129131
0.128543
0.12803
0.127532
0.127023
0.126492
0.125984
0.125512
0.125084
0.124692
0.124325
0.123984
0.123645
0.123334
0.122992
0.134331
0.131303
0.119645
0.0935406
0.0496848
0.0666231
0.134316
0.133292
0.132562
0.131397
0.124637
0.116999
0.101703
0.103636
0.438123
0.719343
0.793307
0.763799
0.919438
0.765265
0.133751
0.132808
0.132094
0.131609
0.131437
0.13128
0.126469
0.121933
0.216374
0.474134
0.591077
0.58443
0.424712
0.43366
0.410899
0.133688
0.132705
0.13192
0.131392
0.131334
0.132184
0.132781
0.132497
0.0894084
0.0809586
0.13604
0.11808
0.122736
0.128375
0.132497
0.136741
0.14054
0.143222
0.133653
0.132628
0.131785
0.131174
0.130964
0.131704
0.133694
0.13908
0.141196
0.132228
0.123684
0.124023
0.130527
0.131672
0.132994
0.134256
0.135249
0.135729
0.135954
0.135949
0.133633
0.132584
0.131699
0.131015
0.130657
0.130985
0.132848
0.136789
0.139764
0.139529
0.140252
0.140791
0.140727
0.140372
0.139952
0.139564
0.139187
0.138713
0.138184
0.137618
0.133621
0.132556
0.131643
0.130907
0.13043
0.130446
0.131525
0.134334
0.136744
0.138111
0.138904
0.139081
0.138644
0.138117
0.137518
0.136943
0.136385
0.135796
0.135204
0.134618
0.133614
0.132538
0.131605
0.130831
0.130272
0.130064
0.130551
0.132114
0.133742
0.134944
0.135473
0.135606
0.135175
0.134661
0.134087
0.133554
0.133051
0.132535
0.132018
0.131496
0.133609
0.132525
0.131578
0.130776
0.130159
0.129806
0.129894
0.130637
0.131515
0.132202
0.132443
0.132373
0.132031
0.13152
0.131073
0.13064
0.130221
0.129782
0.12935
0.128908
0.133607
0.132518
0.13156
0.130738
0.130077
0.129627
0.129473
0.129717
0.13006
0.130306
0.130293
0.130089
0.129796
0.12937
0.128979
0.128598
0.12823
0.127845
0.127471
0.127074
0.133605
0.132512
0.131547
0.130709
0.130016
0.129499
0.129197
0.129142
0.129158
0.129114
0.128921
0.128608
0.128287
0.127893
0.127534
0.127185
0.126851
0.126503
0.12617
0.125807
0.133604
0.132509
0.131538
0.130688
0.129972
0.129408
0.12901
0.128778
0.128597
0.128372
0.12806
0.127686
0.127324
0.126942
0.126593
0.126257
0.125938
0.125609
0.125298
0.124952
0.133604
0.132507
0.131531
0.130673
0.12994
0.129341
0.12888
0.12854
0.128238
0.1279
0.127507
0.127088
0.126694
0.126307
0.125957
0.125622
0.125307
0.124987
0.124689
0.124355
0.133604
0.132506
0.131527
0.130662
0.129917
0.129293
0.12879
0.128381
0.128002
0.127596
0.127139
0.126687
0.126268
0.125875
0.125522
0.125189
0.124876
0.124562
0.124272
0.123945
0.133605
0.132506
0.131524
0.130654
0.1299
0.129259
0.128724
0.128278
0.127846
0.127397
0.126902
0.12643
0.125993
0.125593
0.125234
0.124899
0.124586
0.124274
0.123988
0.123667
0.133606
0.132507
0.131523
0.130649
0.129887
0.129233
0.12868
0.128203
0.127744
0.127264
0.126766
0.12628
0.125833
0.125427
0.125063
0.124725
0.124411
0.1241
0.123815