/*--------------------------------*- C++ -*----------------------------------*\
  =========                 |
  \\      /  F ield         | OpenFOAM: The Open Source CFD Toolbox
   \\    /   O peration     | Website:  https://openfoam.org
    \\  /    A nd           | Version:  10
     \\/     M anipulation  |
\*---------------------------------------------------------------------------*/
FoamFile
{
    format      ascii;
    class       volScalarField;
    location    "2000";
    object      omega;
}
// * * * * * * * * * * * * * * * * * * * * * * * * * * * * * * * * * * * * * //

dimensions      [0 0 -1 0 0 0 0];

internalField   nonuniform List<scalar> 
55398
(
1.73209
1.85074
2.30243
4.20756
6.02626
9.3474
1.66338
1.46979
1.31786
1.20356
1.15943
1.19157
1.99366
5.77241
8.20637
5.89628
4.39965
4.11214
3.68885
3.21397
1.57515
1.41124
1.27658
1.16508
1.0744
1.02645
1.23829
2.19842
8.21897
5.25723
4.10979
3.35012
2.58869
2.02872
1.64021
1.57619
1.41274
1.27907
1.16806
1.07617
1.00851
1.04854
1.28927
2.42588
11.5108
8.03392
3.31812
1.85911
1.56169
1.36977
1.21613
1.09526
1.00336
1.578
1.41558
1.28262
1.17209
1.08006
1.00674
0.980934
1.07758
1.34718
1.65058
1.93985
1.65139
1.26582
1.02589
0.935992
0.865773
0.811918
0.754084
0.709237
0.673609
1.57968
1.41829
1.28604
1.17599
1.08407
1.00843
0.959557
0.968711
0.990908
0.998731
0.980779
0.919348
0.864828
0.811232
0.7614
0.719242
0.683805
0.649175
0.618777
0.592129
1.58119
1.42076
1.28917
1.17933
1.08806
1.01122
0.953063
0.924174
0.907921
0.890174
0.856833
0.816579
0.776655
0.736219
0.70066
0.668423
0.639258
0.611103
0.58552
0.562065
1.58254
1.42299
1.29201
1.18295
1.09131
1.01488
0.952845
0.907715
0.873384
0.842711
0.808359
0.77326
0.738702
0.704613
0.674043
0.645295
0.618767
0.593441
0.570017
0.548291
1.58316
1.42479
1.29463
1.18621
1.09482
1.01846
0.954336
0.90287
0.860701
0.823779
0.788191
0.754145
0.721258
0.689807
0.660915
0.633979
0.608705
0.584764
0.5623
0.541486
1.58496
1.42688
1.29695
1.18864
1.09771
1.02134
0.956688
0.902418
0.856612
0.816698
0.779911
0.745634
0.713549
0.683067
0.65505
0.628691
0.603979
0.580654
0.558768
0.538252
1.58598
1.42857
1.2991
1.19112
1.10039
1.02391
0.958758
0.9033
0.855886
0.814417
0.776723
0.741874
0.710041
0.679867
0.652062
0.625903
0.601561
0.578534
0.556919
0.536592
1.58691
1.43012
1.30107
1.1934
1.10285
1.02631
0.960806
0.904781
0.856577
0.813997
0.775527
0.74053
0.708377
0.678525
0.650536
0.62463
0.600348
0.577515
0.556056
0.535818
1.58776
1.43156
1.30288
1.1955
1.10516
1.02856
0.962916
0.906454
0.857687
0.814362
0.775396
0.740058
0.707674
0.677717
0.649917
0.62403
0.599788
0.577055
0.555694
0.535522
1.58856
1.4329
1.30457
1.19745
1.10756
1.03053
0.964852
0.908155
0.858888
0.815216
0.775789
0.740095
0.707596
0.677553
0.649701
0.623913
0.599714
0.577047
0.555749
0.535612
1.5893
1.43414
1.30614
1.19926
1.10927
1.03251
0.966725
0.909888
0.860298
0.816297
0.776585
0.740775
0.707991
0.677876
0.65002
0.624238
0.600047
0.577401
0.556132
0.536012
1.58999
1.43531
1.3076
1.20092
1.11087
1.03435
0.968532
0.911579
0.861774
0.817528
0.777692
0.741694
0.708791
0.678609
0.650751
0.624885
0.600696
0.578047
0.556804
0.536689
1.59065
1.4364
1.30897
1.20247
1.11259
1.03597
0.970228
0.913246
0.863327
0.818949
0.779008
0.74289
0.709884
0.679622
0.651682
0.625796
0.60156
0.578883
0.557598
0.537454
1.59117
1.43727
1.31004
1.20363
1.11375
1.03718
0.971407
0.914438
0.864411
0.819952
0.779919
0.743723
0.710617
0.680306
0.652386
0.626356
0.601998
0.579231
0.557885
0.537691
1.72756
1.71822
1.94754
3.14554
6.86247
7.43208
1.66331
1.46966
1.31746
1.1997
1.14472
1.15837
1.88035
5.34073
6.63887
5.65475
4.41744
4.32228
3.73114
3.17695
1.57494
1.411
1.27667
1.16509
1.07417
1.02232
1.2065
2.18183
8.42618
5.10646
3.96039
3.24067
2.13937
2.02927
1.55089
1.57621
1.41275
1.27911
1.16818
1.07633
1.00782
1.03419
1.27201
2.86978
8.9578
7.99998
2.38538
1.83142
1.54423
1.35013
1.19216
1.06962
0.970689
1.57803
1.41559
1.28267
1.17222
1.08019
1.00672
0.976745
1.06714
1.28362
1.56571
1.74447
1.6333
1.16448
1.02685
0.927763
0.860628
0.806523
0.749715
0.703628
0.665453
1.5797
1.41831
1.28608
1.17611
1.0842
1.00856
0.958573
0.963585
0.982904
0.992589
0.963365
0.915831
0.864059
0.808622
0.758402
0.717839
0.68233
0.647624
0.616881
0.589377
1.58121
1.42077
1.2892
1.17951
1.08809
1.01149
0.953162
0.922606
0.904733
0.886838
0.854082
0.815549
0.776443
0.736003
0.700493
0.667954
0.638633
0.610762
0.584844
0.560956
1.58257
1.423
1.29204
1.18302
1.09147
1.01478
0.953293
0.907487
0.872371
0.841376
0.807271
0.772735
0.738583
0.704573
0.673894
0.645079
0.618486
0.593261
0.569738
0.547764
1.58334
1.42476
1.29459
1.1862
1.09494
1.01858
0.954354
0.903059
0.860561
0.823367
0.787784
0.75389
0.721035
0.689736
0.660871
0.633844
0.608572
0.584673
0.562207
0.541219
1.58496
1.42689
1.29697
1.18871
1.0978
1.02145
0.956631
0.902759
0.856817
0.816626
0.779779
0.745516
0.713401
0.683037
0.654997
0.628612
0.603898
0.580593
0.558711
0.538106
1.58598
1.42858
1.29911
1.19118
1.10046
1.02409
0.958813
0.903599
0.856131
0.814435
0.776679
0.741768
0.709909
0.679849
0.652026
0.625877
0.601493
0.578497
0.556896
0.536511
1.5869
1.43014
1.30108
1.19344
1.1029
1.02636
0.961139
0.905126
0.856693
0.814043
0.775544
0.740488
0.708238
0.678622
0.65045
0.624573
0.600304
0.577485
0.556045
0.535772
1.58776
1.43157
1.3029
1.19553
1.10521
1.02862
0.963197
0.906753
0.857771
0.81443
0.77542
0.740031
0.707579
0.677697
0.649938
0.623995
0.599762
0.577034
0.555694
0.535499
1.58856
1.4329
1.30458
1.19748
1.10761
1.03068
0.965101
0.908401
0.858973
0.815259
0.775816
0.74004
0.707564
0.677554
0.64971
0.623898
0.599698
0.577031
0.555754
0.535604
1.5893
1.43414
1.30614
1.19927
1.1093
1.03271
0.966954
0.910091
0.860369
0.816332
0.776611
0.740771
0.707972
0.677879
0.650022
0.624223
0.600032
0.577388
0.55614
0.536013
1.58999
1.43531
1.3076
1.20093
1.11092
1.03446
0.968695
0.911729
0.861829
0.817555
0.777713
0.741692
0.708774
0.678612
0.650748
0.624878
0.600681
0.578037
0.556807
0.536691
1.59064
1.4364
1.30897
1.20247
1.1126
1.03606
0.970321
0.913336
0.863362
0.818966
0.779022
0.742888
0.709869
0.679626
0.651688
0.625777
0.601542
0.57887
0.557601
0.537454
1.59117
1.43727
1.31003
1.20363
1.11375
1.0372
0.971437
0.914471
0.864426
0.819957
0.779923
0.743721
0.710605
0.6803
0.652382
0.62633
0.601992
0.579228
0.557891
0.537695
1.72538
1.66492
1.83132
2.6326
5.49761
6.67706
1.66334
1.46967
1.31745
1.20006
1.14648
1.15481
1.77497
4.6113
6.25027
5.54463
4.46183
4.08778
3.6822
3.10604
1.5749
1.41088
1.27666
1.16504
1.07418
1.02141
1.20525
2.06404
9.49367
5.09179
3.92708
3.19143
2.09214
1.99309
1.54422
1.57623
1.41273
1.27912
1.16816
1.07634
1.00785
1.03672
1.2674
2.48988
5.86718
7.12077
2.35863
1.86327
1.55062
1.33752
1.17433
1.06048
0.966795
1.57805
1.41558
1.28267
1.1722
1.08016
1.00679
0.977333
1.06828
1.30485
1.57474
1.72402
1.58696
1.14902
1.01813
0.927146
0.859154
0.802348
0.746248
0.701713
0.664127
1.57972
1.41829
1.28608
1.17609
1.08416
1.00865
0.958656
0.964217
0.984917
0.994124
0.96254
0.915071
0.859526
0.803976
0.757562
0.717397
0.681188
0.646437
0.616231
0.589012
1.58123
1.42076
1.28921
1.17955
1.08801
1.0117
0.953081
0.922739
0.905172
0.887146
0.853526
0.815349
0.776623
0.735183
0.700074
0.667853
0.638187
0.610047
0.584229
0.560799
1.58259
1.42299
1.29204
1.183
1.09149
1.01497
0.9531
0.907499
0.872459
0.841425
0.807098
0.772608
0.738559
0.704392
0.673675
0.64503
0.618299
0.592923
0.569475
0.547705
1.58348
1.42476
1.29455
1.18611
1.09492
1.0186
0.95442
0.903046
0.86054
0.823391
0.787714
0.753806
0.721102
0.689636
0.660773
0.633801
0.608489
0.584512
0.562105
0.541193
1.58496
1.42688
1.29697
1.1887
1.09778
1.02147
0.956644
0.902728
0.856813
0.816653
0.779753
0.745398
0.713384
0.682974
0.654915
0.628581
0.603854
0.580501
0.558647
0.538094
1.58598
1.42858
1.29912
1.19117
1.10044
1.02408
0.958854
0.903588
0.856133
0.814449
0.776652
0.741705
0.709916
0.679815
0.651964
0.625867
0.601464
0.578443
0.556866
0.53651
1.58691
1.43013
1.30109
1.19344
1.10289
1.02639
0.961112
0.905103
0.856713
0.814056
0.775538
0.740482
0.708237
0.678572
0.650352
0.624525
0.600282
0.577445
0.556028
0.535775
1.58776
1.43157
1.3029
1.19553
1.1052
1.02864
0.963179
0.906734
0.857779
0.814448
0.775415
0.74003
0.707574
0.67767
0.649793
0.623934
0.599749
0.577009
0.555688
0.535506
1.58856
1.4329
1.30459
1.19748
1.10757
1.03074
0.9651
0.908387
0.858989
0.815261
0.775808
0.74007
0.70752
0.67761
0.649595
0.623838
0.599691
0.577014
0.555753
0.535612
1.5893
1.43414
1.30615
1.19928
1.10932
1.0327
0.96696
0.910087
0.860385
0.816333
0.776605
0.740771
0.70796
0.677879
0.650019
0.62419
0.60003
0.577376
0.556143
0.536021
1.58999
1.43531
1.30761
1.20093
1.11095
1.03444
0.968695
0.911727
0.861843
0.817557
0.777709
0.741692
0.708761
0.678612
0.650741
0.624859
0.60068
0.578027
0.556809
0.536698
1.59065
1.4364
1.30898
1.20247
1.1126
1.03605
0.970321
0.913332
0.86337
0.818967
0.77902
0.742888
0.709857
0.679626
0.651685
0.625758
0.601538
0.578854
0.557602
0.537461
1.59117
1.43727
1.31004
1.20363
1.11375
1.0372
0.971437
0.914469
0.864431
0.819958
0.779923
0.743721
0.710591
0.680292
0.652386
0.626293
0.601988
0.579221
0.557898
0.537702
1.72453
1.62281
1.7583
2.34967
4.95448
6.31862
1.66335
1.46965
1.31742
1.20096
1.15123
1.15737
1.75523
4.29027
6.02839
5.48869
4.48901
4.03351
3.66786
3.10087
1.57486
1.41078
1.27662
1.165
1.0742
1.02079
1.20447
2.0869
10.844
5.13147
3.91174
3.15779
2.08406
1.97718
1.54368
1.57624
1.41272
1.27912
1.16814
1.07635
1.00783
1.03869
1.27466
2.27263
4.73513
6.74496
2.32946
1.87771
1.55789
1.33754
1.177
1.0596
0.965529
1.57806
1.41557
1.28267
1.17218
1.08013
1.00683
0.978028
1.06953
1.31276
1.58913
1.7281
1.56787
1.14865
1.02656
0.930714
0.858947
0.800973
0.746814
0.701558
0.663549
1.57974
1.41828
1.28608
1.17608
1.08413
1.00872
0.958797
0.964798
0.987125
0.99628
0.962742
0.91514
0.858697
0.804839
0.757848
0.717147
0.680862
0.646666
0.616197
0.588887
1.58125
1.42075
1.2892
1.17958
1.08796
1.01185
0.953029
0.922867
0.90568
0.887599
0.85341
0.81533
0.775096
0.733661
0.69975
0.667709
0.638075
0.610116
0.584276
0.56076
1.5826
1.42298
1.29204
1.18298
1.0915
1.01511
0.952951
0.907478
0.872554
0.841508
0.807048
0.772583
0.737844
0.703501
0.673486
0.644952
0.618258
0.592978
0.569486
0.547695
1.58359
1.42477
1.29452
1.18604
1.09489
1.01862
0.95444
0.903037
0.86053
0.823413
0.787693
0.753743
0.721059
0.68922
0.66072
0.633759
0.608469
0.584535
0.562119
0.54119
1.58497
1.42688
1.29698
1.18869
1.09777
1.02148
0.956643
0.902704
0.856803
0.816673
0.779748
0.745306
0.713413
0.682813
0.654904
0.628557
0.603844
0.580508
0.558642
0.538091
1.58598
1.42858
1.29913
1.19117
1.10043
1.02407
0.958871
0.903581
0.856131
0.814459
0.776638
0.741719
0.709867
0.679684
0.651962
0.625863
0.601456
0.578444
0.55686
0.536512
1.58691
1.43013
1.3011
1.19344
1.10288
1.02641
0.961094
0.90508
0.856721
0.814068
0.775537
0.740482
0.708217
0.678378
0.650434
0.624516
0.600272
0.57744
0.556019
0.535778
1.58777
1.43156
1.30291
1.19553
1.10519
1.02865
0.963166
0.906716
0.85778
0.814462
0.775415
0.74003
0.707562
0.677574
0.649778
0.623926
0.599744
0.577004
0.55568
0.53551
1.58856
1.4329
1.30459
1.19748
1.10754
1.03076
0.965101
0.908376
0.858998
0.815264
0.775803
0.74009
0.707495
0.677589
0.649495
0.623808
0.599684
0.577006
0.555746
0.535617
1.5893
1.43414
1.30616
1.19928
1.10934
1.03268
0.966957
0.910082
0.860395
0.816336
0.776602
0.74077
0.707959
0.677846
0.649899
0.624171
0.600029
0.577369
0.556136
0.536027
1.59
1.43531
1.30762
1.20093
1.11097
1.03442
0.968688
0.911723
0.861852
0.81756
0.777708
0.741692
0.708761
0.678592
0.650646
0.624853
0.600684
0.578021
0.556801
0.536702
1.59065
1.4364
1.30899
1.20247
1.1126
1.03605
0.970318
0.913328
0.863375
0.818969
0.77902
0.742889
0.709855
0.679611
0.651616
0.625759
0.601541
0.578847
0.557595
0.537465
1.59118
1.43727
1.31005
1.20363
1.11375
1.03719
0.971435
0.914466
0.864434
0.819959
0.779925
0.743721
0.710588
0.680287
0.652349
0.626278
0.601989
0.579217
0.557897
0.537708
1.72418
1.58878
1.69098
2.13667
4.68955
6.06238
1.66336
1.46962
1.31736
1.2012
1.15516
1.15934
1.72845
3.98414
5.87699
5.44059
4.51034
4.01964
3.66751
3.10356
1.57482
1.4107
1.27657
1.16497
1.07423
1.0203
1.20115
2.06274
11.8233
5.1907
3.91094
3.12919
2.07351
1.96554
1.54337
1.57625
1.41271
1.27912
1.16813
1.07635
1.00779
1.03956
1.27733
2.15764
4.68363
6.72874
2.29125
1.87811
1.5626
1.33845
1.17896
1.05942
0.964438
1.57807
1.41556
1.28267
1.17217
1.08011
1.00686
0.978566
1.07008
1.30643
1.58649
1.72388
1.5596
1.14923
1.03194
0.934346
0.859587
0.80013
0.747046
0.701481
0.663088
1.57975
1.41828
1.28608
1.17607
1.08411
1.00877
0.958947
0.965221
0.988857
0.998488
0.963555
0.91543
0.858169
0.805305
0.758133
0.717011
0.680586
0.646775
0.616197
0.588791
1.58126
1.42075
1.2892
1.1796
1.08793
1.01196
0.953022
0.922977
0.906162
0.88811
0.853443
0.815304
0.774613
0.734488
0.699726
0.667595
0.637966
0.610147
0.584322
0.56074
1.58261
1.42298
1.29204
1.18297
1.0915
1.01522
0.952866
0.90745
0.872636
0.841598
0.80702
0.772559
0.737644
0.703787
0.67343
0.644879
0.618212
0.593013
0.569506
0.547692
1.58366
1.4248
1.2945
1.18599
1.09487
1.01863
0.954451
0.90303
0.860523
0.823427
0.787678
0.753692
0.721145
0.6892
0.660689
0.633721
0.608447
0.584549
0.562133
0.541192
1.58497
1.42687
1.29698
1.18869
1.09776
1.02149
0.956646
0.902687
0.856792
0.816684
0.779746
0.745237
0.713444
0.682853
0.654912
0.628542
0.603835
0.580512
0.558639
0.538088
1.58598
1.42857
1.29913
1.19117
1.10042
1.02406
0.958882
0.903578
0.856129
0.814466
0.776629
0.741727
0.709846
0.679674
0.651967
0.625862
0.60145
0.578444
0.556856
0.536513
1.58691
1.43013
1.3011
1.19344
1.10287
1.02642
0.961085
0.905062
0.856723
0.814078
0.775539
0.740481
0.708207
0.678305
0.650495
0.624526
0.600268
0.577436
0.556011
0.535779
1.58777
1.43156
1.30291
1.19553
1.10519
1.02866
0.963159
0.906701
0.857777
0.814471
0.775417
0.740031
0.707556
0.677544
0.649793
0.623928
0.599741
0.576999
0.555673
0.535512
1.58856
1.43289
1.3046
1.19748
1.10752
1.03077
0.965104
0.908368
0.859003
0.815269
0.775801
0.740104
0.707481
0.677523
0.649543
0.623803
0.599678
0.577
0.555739
0.53562
1.5893
1.43414
1.30616
1.19928
1.10935
1.03267
0.966951
0.910078
0.860401
0.81634
0.7766
0.740768
0.707959
0.677831
0.649894
0.624161
0.600026
0.577363
0.556129
0.536029
1.59
1.4353
1.30762
1.20093
1.11099
1.0344
0.96868
0.911718
0.861858
0.817564
0.777708
0.74169
0.708763
0.678582
0.650628
0.624848
0.600685
0.578017
0.556794
0.536703
1.59065
1.4364
1.30899
1.20247
1.11261
1.03604
0.970316
0.913324
0.863379
0.818971
0.77902
0.742889
0.709861
0.679604
0.651591
0.625758
0.601543
0.578842
0.557589
0.537467
1.59118
1.43727
1.31005
1.20364
1.11375
1.03719
0.971434
0.914464
0.864436
0.819961
0.779926
0.743721
0.710595
0.680298
0.652312
0.626262
0.601985
0.579214
0.557895
0.537712
1.72402
1.56494
1.6313
1.98395
4.53328
5.90201
1.66336
1.4696
1.31729
1.20092
1.15785
1.16065
1.70017
3.78243
5.76168
5.38657
4.52469
4.02003
3.66866
3.11057
1.57479
1.41064
1.27652
1.16495
1.07427
1.01992
1.1961
2.01881
12.5896
5.26115
3.92623
3.10998
2.06199
1.95455
1.54234
1.57626
1.41271
1.27912
1.16812
1.07636
1.00774
1.03953
1.27521
2.08458
4.9424
7.05592
2.25553
1.86975
1.56376
1.33922
1.18026
1.05948
0.963553
1.57808
1.41556
1.28267
1.17216
1.0801
1.00688
0.978915
1.0698
1.29484
1.57105
1.70907
1.55353
1.14997
1.03542
0.937554
0.860719
0.799757
0.747102
0.701417
0.66272
1.57975
1.41827
1.28608
1.17606
1.0841
1.0088
0.959085
0.965461
0.989797
1.00021
0.964617
0.915903
0.857925
0.805563
0.758374
0.716947
0.680359
0.646788
0.616192
0.588713
1.58126
1.42074
1.2892
1.17962
1.08792
1.01204
0.953046
0.923067
0.906558
0.888619
0.853582
0.815294
0.774251
0.734975
0.699824
0.667533
0.637868
0.610143
0.584353
0.560729
1.58262
1.42298
1.29204
1.18296
1.09151
1.0153
0.952827
0.907429
0.872704
0.841694
0.807016
0.77254
0.737492
0.703986
0.673438
0.644825
0.618161
0.593025
0.569522
0.547691
1.58371
1.42483
1.2945
1.18595
1.09484
1.01864
0.954459
0.903025
0.860519
0.823437
0.78767
0.753651
0.721185
0.68923
0.660679
0.63369
0.60842
0.584551
0.562144
0.541195
1.58497
1.42687
1.29698
1.18869
1.09776
1.02149
0.956651
0.902676
0.856781
0.81669
0.779745
0.745185
0.713453
0.682894
0.65493
0.628535
0.603825
0.580514
0.558638
0.538086
1.58598
1.42857
1.29913
1.19117
1.10042
1.02406
0.95889
0.903577
0.856127
0.814472
0.776624
0.741729
0.709832
0.679671
0.651972
0.625861
0.601445
0.578444
0.556853
0.536513
1.58691
1.43013
1.3011
1.19344
1.10287
1.02643
0.961081
0.905048
0.85672
0.814085
0.775542
0.740481
0.708201
0.678255
0.65053
0.624541
0.600268
0.577432
0.556005
0.535778
1.58777
1.43156
1.30292
1.19553
1.10518
1.02867
0.963156
0.906689
0.857772
0.814478
0.77542
0.740032
0.707552
0.677523
0.649806
0.623933
0.59974
0.576996
0.555667
0.535513
1.58856
1.43289
1.3046
1.19748
1.1075
1.03078
0.965108
0.908363
0.859005
0.815273
0.7758
0.740113
0.707473
0.677475
0.64958
0.623808
0.599675
0.576995
0.555732
0.53562
1.5893
1.43414
1.30617
1.19928
1.10936
1.03266
0.966945
0.910072
0.860405
0.816344
0.7766
0.740766
0.707959
0.677817
0.649906
0.624158
0.600023
0.577358
0.556123
0.53603
1.59
1.4353
1.30763
1.20094
1.111
1.03439
0.968672
0.911712
0.861861
0.817567
0.777708
0.741689
0.708765
0.678569
0.650628
0.624847
0.600686
0.578015
0.556788
0.536703
1.59065
1.4364
1.309
1.20248
1.11261
1.03604
0.970313
0.913321
0.86338
0.818973
0.779021
0.742889
0.709865
0.67959
0.651586
0.625757
0.601544
0.578839
0.557584
0.537467
1.59118
1.43727
1.31006
1.20364
1.11376
1.03719
0.971433
0.914462
0.864437
0.819962
0.779927
0.743721
0.7106
0.680315
0.652288
0.626246
0.601979
0.579209
0.557892
0.537715
1.72395
1.54997
1.5811
1.87339
4.4354
5.82835
1.66336
1.46958
1.31722
1.20031
1.15897
1.16111
1.67435
3.70963
5.64623
5.31826
4.52656
4.02661
3.67331
3.11916
1.57477
1.41059
1.27648
1.16492
1.07431
1.01962
1.19048
1.97379
13.0215
5.32743
3.95611
3.10203
2.05109
1.94405
1.54034
1.57626
1.4127
1.27911
1.16812
1.07636
1.00768
1.03886
1.26936
2.03576
5.07407
7.39075
2.22788
1.85756
1.56171
1.33926
1.18103
1.05962
0.96286
1.57809
1.41556
1.28267
1.17216
1.08009
1.00689
0.979074
1.06875
1.28263
1.5503
1.688
1.54568
1.15046
1.0377
0.940206
0.862062
0.799773
0.747135
0.701369
0.662428
1.57976
1.41827
1.28608
1.17606
1.08409
1.00882
0.959194
0.96551
0.989927
1.00107
0.965565
0.916456
0.857907
0.805759
0.758585
0.716935
0.68018
0.646748
0.616174
0.588648
1.58126
1.42074
1.2892
1.17963
1.08791
1.01209
0.953082
0.923132
0.906827
0.889053
0.853786
0.815317
0.773994
0.735251
0.699959
0.667518
0.63779
0.610121
0.584366
0.560721
1.58262
1.42298
1.29204
1.18296
1.09151
1.01537
0.952817
0.907416
0.872758
0.841786
0.807032
0.772529
0.737386
0.70411
0.673472
0.64479
0.618115
0.593022
0.569533
0.547693
1.58375
1.42486
1.2945
1.18593
1.09481
1.01864
0.954466
0.903023
0.860516
0.823443
0.787667
0.753619
0.721201
0.689265
0.660684
0.633667
0.608395
0.584547
0.56215
0.541198
1.58497
1.42687
1.29698
1.18868
1.09775
1.0215
0.956656
0.90267
0.85677
0.81669
0.779744
0.745144
0.713449
0.682924
0.654953
0.628534
0.603817
0.580512
0.558636
0.538083
1.58598
1.42857
1.29913
1.19117
1.10042
1.02405
0.958895
0.903577
0.856124
0.814475
0.776623
0.741729
0.709822
0.679666
0.65198
0.625863
0.601442
0.578442
0.55685
0.536512
1.58691
1.43012
1.3011
1.19344
1.10287
1.02644
0.96108
0.905037
0.856716
0.814089
0.775546
0.740481
0.708196
0.678219
0.650553
0.624558
0.600272
0.577431
0.556001
0.535776
1.58777
1.43156
1.30292
1.19553
1.10518
1.02867
0.963154
0.90668
0.857767
0.814482
0.775424
0.740033
0.707549
0.677508
0.649821
0.62394
0.59974
0.576994
0.555663
0.535512
1.58856
1.43289
1.3046
1.19749
1.10749
1.03078
0.96511
0.908359
0.859006
0.815277
0.775801
0.74012
0.707469
0.677437
0.649611
0.62382
0.599675
0.576991
0.555726
0.535619
1.58931
1.43414
1.30617
1.19929
1.10937
1.03265
0.966939
0.910068
0.860407
0.816348
0.776601
0.740765
0.707959
0.677802
0.649928
0.624162
0.600022
0.577354
0.556117
0.536029
1.59
1.4353
1.30763
1.20094
1.11101
1.03439
0.968666
0.911707
0.861862
0.817571
0.77771
0.741689
0.708767
0.678555
0.650645
0.624851
0.600687
0.578013
0.556783
0.536701
1.59065
1.4364
1.309
1.20248
1.11261
1.03604
0.970311
0.913318
0.863381
0.818974
0.779022
0.742889
0.709868
0.679575
0.651603
0.625761
0.601546
0.578837
0.557579
0.537466
1.59118
1.43727
1.31006
1.20364
1.11376
1.03719
0.971431
0.914461
0.864437
0.819963
0.779929
0.743722
0.710604
0.680333
0.652293
0.626236
0.601972
0.579205
0.557889
0.537716
1.72392
1.54133
1.54122
1.7919
4.3811
5.81379
1.66336
1.46956
1.31715
1.19954
1.15858
1.16059
1.65326
3.74861
5.51766
5.22221
4.51131
4.03091
3.68297
3.12778
1.57475
1.41055
1.27644
1.16489
1.07434
1.01938
1.18526
1.93914
13.1919
5.37912
3.99685
3.10566
2.04208
1.93434
1.53749
1.57626
1.4127
1.27911
1.16812
1.07637
1.00763
1.03782
1.26165
1.99892
4.97643
7.64328
2.2094
1.84501
1.55748
1.33833
1.18128
1.05972
0.962318
1.57809
1.41556
1.28267
1.17216
1.08009
1.00689
0.979069
1.06711
1.27156
1.52851
1.66519
1.53484
1.15034
1.03907
0.942258
0.863416
0.800068
0.747221
0.701347
0.662203
1.57976
1.41828
1.28608
1.17606
1.08409
1.00883
0.959269
0.965368
0.989412
1.001
0.96612
0.916944
0.858016
0.805943
0.758775
0.716962
0.68005
0.646682
0.61614
0.58859
1.58127
1.42074
1.28921
1.17964
1.08791
1.01213
0.953121
0.923166
0.906954
0.889348
0.853998
0.81537
0.773823
0.735398
0.700084
0.667535
0.637738
0.610092
0.584368
0.560714
1.58262
1.42298
1.29205
1.18296
1.09151
1.01541
0.952822
0.90741
0.872795
0.841865
0.807062
0.772524
0.737314
0.704182
0.673511
0.64477
0.618074
0.593011
0.569539
0.547696
1.58378
1.42489
1.29451
1.18591
1.09479
1.01864
0.954471
0.903021
0.860513
0.823446
0.787666
0.753593
0.721203
0.689294
0.660695
0.633654
0.608372
0.584538
0.562153
0.541201
1.58497
1.42687
1.29698
1.18868
1.09774
1.0215
0.95666
0.902667
0.856761
0.816688
0.779742
0.745114
0.713439
0.682944
0.654974
0.628538
0.603811
0.58051
0.558634
0.53808
1.58598
1.42857
1.29914
1.19117
1.10041
1.02405
0.958899
0.903579
0.856122
0.814476
0.776622
0.741729
0.709815
0.679662
0.651985
0.625865
0.60144
0.578441
0.556848
0.53651
1.58691
1.43012
1.3011
1.19344
1.10287
1.02644
0.961081
0.90503
0.856711
0.814092
0.77555
0.740483
0.708193
0.678194
0.650564
0.624572
0.600277
0.577431
0.555997
0.535774
1.58777
1.43156
1.30292
1.19554
1.10518
1.02868
0.963154
0.906673
0.857761
0.814484
0.775428
0.740035
0.707547
0.677496
0.64983
0.623948
0.599743
0.576993
0.555659
0.53551
1.58856
1.43289
1.3046
1.19749
1.10748
1.03078
0.965113
0.908357
0.859006
0.81528
0.775803
0.740125
0.707467
0.677409
0.649626
0.623833
0.599678
0.576988
0.555721
0.535616
1.58931
1.43414
1.30617
1.19929
1.10937
1.03265
0.966935
0.910063
0.860407
0.816351
0.776603
0.740764
0.707959
0.677792
0.649942
0.624169
0.600022
0.577351
0.556112
0.536027
1.59
1.4353
1.30763
1.20094
1.11102
1.03439
0.968661
0.911702
0.861862
0.817573
0.777712
0.741689
0.708768
0.678544
0.650656
0.624856
0.60069
0.578013
0.556779
0.536699
1.59065
1.4364
1.309
1.20248
1.11262
1.03604
0.97031
0.913316
0.863381
0.818976
0.779023
0.742889
0.70987
0.679564
0.651612
0.625766
0.601548
0.578836
0.557576
0.537464
1.59118
1.43727
1.31006
1.20364
1.11376
1.03719
0.971431
0.914459
0.864438
0.819964
0.77993
0.743722
0.710607
0.680346
0.652301
0.62623
0.601965
0.579199
0.557886
0.537716
1.72391
1.53665
1.51126
1.73136
4.35897
5.82876
1.66336
1.46955
1.31709
1.19873
1.15703
1.15907
1.63716
3.86245
5.37655
5.0956
4.47696
4.02671
3.69666
3.13618
1.57474
1.41052
1.27641
1.16486
1.07436
1.01916
1.181
1.92054
13.1682
5.41722
4.04276
3.12002
2.03583
1.92594
1.53406
1.57627
1.4127
1.27911
1.16811
1.07637
1.00758
1.03663
1.25404
1.97036
4.79792
7.8315
2.1994
1.83404
1.55213
1.33647
1.18098
1.05969
0.961866
1.57809
1.41557
1.28267
1.17216
1.08008
1.00688
0.97894
1.06508
1.26199
1.50732
1.64288
1.52142
1.14932
1.03967
0.943731
0.864651
0.800527
0.747382
0.701366
0.66204
1.57976
1.41828
1.28608
1.17606
1.08409
1.00884
0.959309
0.965054
0.988456
1.0001
0.966142
0.91724
0.858154
0.806124
0.758954
0.717021
0.679966
0.646609
0.616094
0.588534
1.58127
1.42075
1.28921
1.17965
1.08791
1.01216
0.953157
0.923166
0.906952
0.889482
0.854169
0.815435
0.773717
0.735475
0.700184
0.667569
0.637708
0.610063
0.584363
0.560707
1.58262
1.42298
1.29205
1.18296
1.09152
1.01545
0.952836
0.90741
0.872815
0.841926
0.807098
0.772523
0.737268
0.704228
0.673547
0.644762
0.618042
0.592994
0.569539
0.547697
1.5838
1.42491
1.29452
1.1859
1.09478
1.01864
0.954476
0.903022
0.860511
0.823447
0.787667
0.753574
0.721197
0.689315
0.660709
0.633648
0.608354
0.584527
0.562151
0.541202
1.58497
1.42687
1.29698
1.18868
1.09774
1.0215
0.956665
0.902666
0.856753
0.816683
0.779739
0.745089
0.713426
0.682957
0.654992
0.628545
0.603809
0.580508
0.558632
0.538078
1.58598
1.42857
1.29914
1.19117
1.10041
1.02405
0.958901
0.90358
0.85612
0.814475
0.776622
0.741729
0.709808
0.679658
0.651987
0.625868
0.601439
0.578439
0.556846
0.536509
1.58691
1.43012
1.30111
1.19344
1.10286
1.02644
0.961083
0.905026
0.856706
0.814092
0.775554
0.740484
0.708191
0.678175
0.650568
0.624582
0.600283
0.577433
0.555995
0.535772
1.58777
1.43156
1.30292
1.19554
1.10518
1.02868
0.963155
0.906669
0.857756
0.814484
0.775432
0.740037
0.707546
0.677487
0.649834
0.623954
0.599746
0.576992
0.555656
0.535508
1.58856
1.43289
1.30461
1.19749
1.10748
1.03078
0.965114
0.908356
0.859005
0.815282
0.775806
0.740129
0.707466
0.677388
0.649633
0.623844
0.599683
0.576988
0.555717
0.535614
1.58931
1.43414
1.30617
1.19929
1.10938
1.03265
0.966932
0.910059
0.860407
0.816353
0.776605
0.740764
0.707958
0.677784
0.64995
0.624176
0.600025
0.577349
0.556108
0.536025
1.59
1.4353
1.30763
1.20094
1.11102
1.03439
0.968658
0.911697
0.86186
0.817575
0.777713
0.741689
0.708769
0.678537
0.650661
0.624861
0.600693
0.578013
0.556777
0.536697
1.59065
1.4364
1.309
1.20248
1.11262
1.03604
0.970309
0.913314
0.863381
0.818977
0.779024
0.74289
0.709872
0.679556
0.651618
0.625771
0.601551
0.578835
0.557573
0.537462
1.59118
1.43727
1.31006
1.20364
1.11376
1.03719
0.97143
0.914458
0.864437
0.819965
0.779931
0.743723
0.71061
0.680356
0.652309
0.626228
0.601959
0.579194
0.557882
0.537716
1.72391
1.53424
1.48986
1.6865
4.35532
5.8559
1.66336
1.46954
1.31704
1.19796
1.15477
1.15663
1.62508
3.99407
5.23241
4.96414
4.42438
4.01142
3.71087
3.14513
1.57473
1.41049
1.27638
1.16484
1.07437
1.01896
1.17784
1.91772
13.0235
5.44327
4.08764
3.14331
2.03278
1.91933
1.53039
1.57627
1.4127
1.27911
1.16811
1.07637
1.00753
1.03549
1.24804
1.95236
4.71377
7.99154
2.19668
1.82577
1.54663
1.3339
1.18019
1.05948
0.961458
1.57809
1.41557
1.28267
1.17216
1.08008
1.00688
0.978732
1.06291
1.25391
1.48812
1.62132
1.50634
1.14726
1.03954
0.944646
0.865682
0.801053
0.74761
0.701428
0.661933
1.57976
1.41828
1.28609
1.17606
1.08409
1.00885
0.959316
0.964606
0.987239
0.998572
0.965616
0.917257
0.858237
0.806282
0.759121
0.717103
0.679922
0.646541
0.616042
0.588481
1.58127
1.42075
1.28921
1.17966
1.08792
1.01218
0.953185
0.92313
0.906839
0.889449
0.854268
0.815492
0.773655
0.735514
0.70026
0.667609
0.637694
0.610039
0.584353
0.560698
1.58263
1.42299
1.29205
1.18296
1.09152
1.01547
0.952852
0.90741
0.87282
0.841963
0.807135
0.772524
0.737236
0.704258
0.673579
0.644761
0.618017
0.592975
0.569533
0.547697
1.58382
1.42493
1.29453
1.1859
1.09477
1.01864
0.95448
0.903023
0.860509
0.823445
0.787668
0.753559
0.721185
0.689329
0.660723
0.633647
0.608341
0.584516
0.562147
0.541202
1.58497
1.42687
1.29698
1.18868
1.09774
1.0215
0.956668
0.902666
0.856747
0.816677
0.779736
0.745069
0.713411
0.682963
0.655007
0.628552
0.603808
0.580506
0.558631
0.538076
1.58598
1.42857
1.29914
1.19117
1.10041
1.02405
0.958903
0.903581
0.856118
0.814473
0.776623
0.741728
0.709803
0.679654
0.651989
0.62587
0.601438
0.578438
0.556845
0.536508
1.58691
1.43012
1.30111
1.19345
1.10286
1.02645
0.961085
0.905023
0.8567
0.81409
0.775556
0.740486
0.708189
0.678162
0.650568
0.62459
0.600289
0.577435
0.555994
0.53577
1.58777
1.43156
1.30292
1.19554
1.10518
1.02868
0.963157
0.906666
0.857751
0.814482
0.775434
0.740039
0.707545
0.67748
0.649836
0.62396
0.599749
0.576993
0.555654
0.535506
1.58856
1.43289
1.30461
1.19749
1.10748
1.03078
0.965115
0.908355
0.859005
0.815283
0.775808
0.740133
0.707466
0.677373
0.649635
0.623852
0.599689
0.576989
0.555715
0.535611
1.58931
1.43414
1.30617
1.19929
1.10938
1.03265
0.96693
0.910056
0.860405
0.816354
0.776607
0.740764
0.707958
0.677777
0.649955
0.624182
0.600028
0.577349
0.556105
0.536022
1.59
1.4353
1.30763
1.20095
1.11103
1.03439
0.968656
0.911693
0.861858
0.817576
0.777715
0.74169
0.708769
0.678531
0.650664
0.624866
0.600696
0.578014
0.556775
0.536695
1.59065
1.4364
1.309
1.20249
1.11262
1.03604
0.970309
0.913312
0.86338
0.818977
0.779025
0.74289
0.709873
0.679551
0.651621
0.625776
0.601554
0.578836
0.557571
0.53746
1.59118
1.43727
1.31006
1.20365
1.11376
1.03719
0.97143
0.914457
0.864437
0.819965
0.779932
0.743724
0.710611
0.680364
0.652317
0.626229
0.601955
0.579189
0.557878
0.537714
1.72392
1.53305
1.47529
1.65338
4.35997
5.88797
1.66336
1.46953
1.31699
1.19726
1.15218
1.15347
1.61586
4.10647
5.09761
4.85288
4.35764
3.98572
3.72104
3.15544
1.57472
1.41048
1.27636
1.16481
1.07435
1.01875
1.17565
1.92624
12.7704
5.45718
4.12552
3.17292
2.03294
1.91487
1.5268
1.57627
1.4127
1.27911
1.16811
1.07637
1.00748
1.03447
1.24434
1.94678
4.73758
8.13736
2.19995
1.82063
1.54173
1.33097
1.179
1.05908
0.961049
1.57809
1.41557
1.28268
1.17216
1.08009
1.00687
0.978486
1.06089
1.24742
1.47236
1.60078
1.4905
1.14414
1.0387
0.945018
0.866451
0.801572
0.747883
0.70153
0.661876
1.57976
1.41828
1.28609
1.17606
1.08409
1.00885
0.959297
0.964078
0.985901
0.99667
0.964621
0.916963
0.858201
0.806389
0.759268
0.717199
0.67991
0.646487
0.61599
0.588428
1.58127
1.42075
1.28921
1.17966
1.08792
1.01219
0.953206
0.923061
0.906639
0.889269
0.854278
0.815524
0.773619
0.735535
0.700313
0.667646
0.637692
0.610021
0.584341
0.560689
1.58263
1.42299
1.29205
1.18297
1.09152
1.01549
0.952869
0.907409
0.872808
0.841973
0.807167
0.772526
0.737214
0.70428
0.673607
0.644765
0.617997
0.592955
0.569524
0.547694
1.58383
1.42495
1.29455
1.1859
1.09476
1.01864
0.954483