/*--------------------------------*- C++ -*----------------------------------*\
  =========                 |
  \\      /  F ield         | OpenFOAM: The Open Source CFD Toolbox
   \\    /   O peration     | Website:  https://openfoam.org
    \\  /    A nd           | Version:  10
     \\/     M anipulation  |
\*---------------------------------------------------------------------------*/
FoamFile
{
    format      ascii;
    class       volScalarField;
    location    "2000";
    object      p;
}
// * * * * * * * * * * * * * * * * * * * * * * * * * * * * * * * * * * * * * //

dimensions      [0 2 -2 0 0 0 0];

internalField   nonuniform List<scalar> 
55398
(
31.0796
24.8554
28.575
29.5509
32.0732
38.7737
27.3723
25.1536
27.3687
28.5937
31.4788
37.1914
45.6221
56.7379
-28.0967
-14.3191
-5.77027
-0.797777
0.835309
0.509742
25.5651
24.8065
25.9881
27.4316
29.5746
32.9808
34.8514
31.584
-25.2391
-30.5977
-13.1349
-5.23337
-2.44901
-1.01824
0.0975449
24.4803
23.916
24.6716
25.5407
26.5659
27.1844
24.6835
13.0541
-55.5622
-87.9113
-42.0243
-30.268
-25.1641
-12.9799
-6.53894
-3.03054
-2.14482
-0.156196
23.3318
22.9066
23.2191
23.5096
23.4409
22.0957
16.4222
-4.77212
-49.8085
-76.7574
-101.625
-74.4075
-45.4334
-30.4424
-23.6805
-14.1644
-8.11452
-4.037
-2.73213
-0.752506
22.1839
21.8118
21.7516
21.4873
20.5234
17.7019
10.7278
-9.05268
-47.2352
-67.2104
-76.5712
-60.7329
-40.2126
-30.3228
-23.0804
-15.0706
-9.15928
-5.09924
-3.21691
-1.13236
21.0327
20.6794
20.2959
19.5314
17.8077
14.1226
6.27927
-9.85771
-39.6925
-56.4449
-64.3982
-53.5978
-38.9844
-29.8302
-22.7833
-15.6554
-10.0217
-5.91416
-3.52007
-1.44696
19.9094
19.5483
18.8909
17.7032
15.4026
11.1522
3.18157
-10.835
-34.2879
-48.5921
-55.0613
-48.7156
-37.3442
-28.9764
-22.29
-15.9184
-10.5901
-6.58245
-3.80595
-1.7179
18.8223
18.429
17.544
16.0256
13.3278
8.76515
0.897116
-11.355
-29.9335
-42.2021
-48.0389
-43.9027
-35.2147
-28.0076
-21.8712
-16.1289
-11.0356
-7.1274
-4.02103
-1.92339
17.8017
17.3741
16.3038
14.5191
11.5469
6.80756
-0.74578
-11.5871
-26.628
-37.2025
-42.36
-40.0657
-33.4707
-27.1647
-21.4953
-16.2032
-11.315
-7.52685
-4.1812
-2.08653
16.868
16.4188
15.2009
13.2057
10.0348
5.2319
-1.98261
-11.6689
-24.0929
-33.1953
-37.9019
-36.7114
-31.6173
-26.1899
-21.0137
-16.1714
-11.4993
-7.83536
-4.30126
-2.2091
16.0295
15.5569
14.2237
12.0682
8.77156
3.95738
-2.86806
-11.6103
-22.0935
-30.0668
-34.3336
-33.9102
-30.0571
-25.4012
-20.6368
-16.1438
-11.628
-8.06728
-4.3876
-2.30042
15.2933
14.799
13.378
11.1049
7.7312
2.96691
-3.50349
-11.499
-20.5362
-27.6046
-31.5111
-31.6097
-28.6608
-24.6271
-20.2374
-16.029
-11.6739
-8.22463
-4.44354
-2.36676
14.6678
14.155
12.6687
10.312
6.9018
2.20154
-3.96422
-11.3692
-19.3215
-25.7452
-29.3215
-29.7287
-27.5014
-23.9777
-19.8922
-15.9414
-11.7116
-8.34988
-4.4906
-2.41972
14.159
13.6321
12.0986
9.68327
6.25277
1.62357
-4.29021
-11.2625
-18.3906
-24.3171
-27.6299
-28.2622
-26.5971
-23.432
-19.5955
-15.8399
-11.7088
-8.42389
-4.51308
-2.45197
13.7725
13.2354
11.6693
9.2143
5.77582
1.19883
-4.51918
-11.1475
-17.7841
-23.2122
-26.3786
-27.2799
-25.9369
-23.0197
-19.3769
-15.7636
-11.71
-8.48329
-4.53503
-2.47898
13.5124
12.9683
11.3822
8.90361
5.46395
0.925317
-4.65459
-11.0689
-17.3611
-22.5751
-25.6862
-26.485
-25.4715
-22.7288
-19.2162
-15.704
-11.6989
-8.51259
-4.5422
-2.49081
13.3819
12.8339
11.2381
8.74817
5.30622
0.786265
-4.72807
-11.0539
-17.1381
-22.2714
-25.3084
-26.0739
-25.2884
-22.5907
-19.1333
-15.6711
-11.6941
-8.5293
-4.54754
-2.49697
30.9893
25.1224
28.7674
29.6082
33.3629
39.0171
27.3495
25.1621
27.3586
28.6376
31.5731
37.2324
46.2795
58.4489
-28.811
-14.3707
-5.75978
-0.00939951
1.69063
2.61389
25.5225
24.7377
25.9397
27.4287
29.4971
32.9209
34.8213
31.0821
-27.6669
-30.0702
-14.1453
-5.07831
-0.432443
-0.0945515
1.37221
24.4565
23.848
24.6244
25.5447
26.5032
27.1766
24.6777
12.99
-54.7568
-84.8356
-41.5467
-27.0007
-25.0729
-13.2259
-6.34754
-2.73268
-2.06618
0.313153
23.312
22.8481
23.1752
23.5069
23.3801
22.1396
16.384
-4.31727
-48.6611
-76.2792
-98.6028
-74.5041
-42.7392
-29.8688
-23.6938
-14.2814
-8.01125
-3.93945
-2.62861
-0.489155
22.1667
21.7594
21.7121
21.4823
20.4748
17.7468
10.7139
-8.72439
-46.6547
-66.7003
-75.7577
-60.8521
-40.4291
-30.044
-23.0277
-15.1365
-9.09156
-5.06379
-3.12043
-0.9356
21.0173
20.6321
20.2603
19.533
17.7893
14.1886
6.30806
-9.69458
-39.4518
-56.1251
-63.8211
-53.4581
-39.0823
-29.699
-22.7097
-15.662
-9.97708
-5.91269
-3.45576
-1.30461
19.897
19.5083
18.8618
17.7074
15.4216
11.1887
3.21693
-10.732
-34.0735
-48.3702
-54.7675
-48.5915
-37.3503
-28.9405
-22.2591
-15.9238
-10.5607
-6.58561
-3.76376
-1.59527
18.8191
18.4158
17.5404
16.0389
13.3501
8.78098
0.917413
-11.2574
-29.8219
-42.0386
-47.8822
-43.775
-35.2174
-27.9992
-21.8674
-16.1175
-11.0123
-7.13002
-3.98378
-1.81774
17.8045
17.3816
16.3189
14.5441
11.5671
6.81982
-0.709935
-11.5135
-26.5572
-37.0888
-42.2458
-39.9439
-33.4503
-27.1677
-21.4756
-16.1872
-11.2973
-7.52891
-4.14075
-1.99681
16.871
16.4257
15.2135
13.2266
10.0532
5.25331
-1.93327
-11.6152
-24.0406
-33.131
-37.8289
-36.5974
-31.5853
-26.2022
-20.9994
-16.1591
-11.4802
-7.83665
-4.26616
-2.13437
16.032
15.5621
14.2334
12.0847
8.78566
3.98085
-2.81815
-11.5755
-22.0639
-30.0246
-34.2858
-33.8164
-29.9983
-25.4247
-20.6205
-16.1294
-11.6127
-8.06846
-4.35877
-2.24002
15.2953
14.8029
13.3856
11.1181
7.74332
2.98828
-3.46941
-11.475
-20.5154
-27.5721
-31.4759
-31.5433
-28.6112
-24.6418
-20.235
-16.018
-11.6613
-8.22549
-4.42062
-2.31932
14.6691
14.158
12.6746
10.3225
6.91124
2.22147
-3.93957
-11.351
-19.3046
-25.7228
-29.2966
-29.6903
-27.4701
-23.9819
-19.8856
-15.9347
-11.7026
-8.35085
-4.47267
-2.38286
14.1602
13.6344
12.103
9.6909
6.26263
1.63917
-4.27313
-11.2502
-18.3796
-24.3016
-27.6146
-28.2431
-26.5837
-23.4292
-19.5907
-15.8336
-11.7025
-8.42464
-4.49974
-2.42454
13.7733
13.237
11.6725
9.21961
5.78473
1.20806
-4.50853
-11.1398
-17.7779
-23.2026
-26.3701
-27.2688
-25.9303
-23.0167
-19.3697
-15.7591
-11.7057
-8.4835
-4.52579
-2.45957
13.5129
12.9693
11.3841
8.90681
5.46806
0.930763
-4.64995
-11.066
-17.358
-22.5711
-25.6826
-26.4782
-25.4673
-22.7265
-19.2124
-15.7005
-11.6971
-8.51303
-4.53688
-2.47922
13.3821
12.8344
11.239
8.74945
5.3078
0.787516
-4.72757
-11.0541
-17.1374
-22.2699
-25.3072
-26.0712
-25.2861
-22.5881
-19.1315
-15.6686
-11.6926
-8.52888
-4.54276
-2.49017
31.0255
25.198
28.7007
29.4026
32.4492
39.2478
27.36
25.1871
27.3353
28.5223
31.4114
36.9352
44.7362
55.0254
-28.788
-14.9474
-5.91355
-0.500213
1.58096
0.975513
25.5041
24.7112
25.8842
27.3298
29.3676
32.5922
33.5749
28.9087
-26.8146
-29.545
-14.5055
-5.7847
-1.24548
-0.673071
0.718782
24.4364
23.8034
24.5617
25.4322
26.3517
26.8884
23.8282
12.1625
-53.9228
-86.0211
-40.5651
-28.8928
-25.2378
-13.5897
-6.39771
-3.14619
-2.34645
-0.123134
23.2932
22.805
23.1192
23.4066
23.2455
21.9126
15.811
-4.41306
-47.8628
-75.9264
-98.0911
-73.5609
-42.4522
-30.5152
-23.9515
-14.5071
-8.03092
-4.07116
-2.81704
-0.704773
22.1502
21.7206
21.6624
21.3965
20.3642
17.5729
10.3756
-8.84035
-46.3789
-66.5398
-74.9828
-60.5984
-40.1263
-29.9685
-23.127
-15.2634
-9.09836
-5.13492
-3.25424
-1.09228
21.0029
20.5984
20.2174
19.462
17.7058
14.0639
6.13161
-9.7022
-39.2252
-55.9303
-63.4348
-53.3314
-39.0042
-29.624
-22.7615
-15.7369
-9.98831
-5.9372
-3.5335
-1.42499
19.8851
19.4807
18.8266
17.6516
15.3595
11.1709
3.14832
-10.7023
-33.9036
-48.2107
-54.6302
-48.5266
-37.3457
-28.9183
-22.3003
-15.9827
-10.5731
-6.57663
-3.79139
-1.68694
18.8106
18.3969
17.5156
15.997
13.3047
8.76702
0.912362
-11.232
-29.7075
-41.9216
-47.7636
-43.686
-35.23
-27.9853
-21.8754
-16.1528
-11.019
-7.11282
-3.99403
-1.88666
17.7992
17.3713
16.3038
14.5126
11.5331
6.80469
-0.723187
-11.4936
-26.489
-37.0073
-42.1597
-39.8517
-33.4285
-27.1521
-21.4706
-16.2102
-11.3041
-7.5123
-4.14583
-2.04602
16.8677
16.4189
15.2025
13.2012
10.027
5.22459
-1.939
-11.5898
-24.0132
-33.0812
-37.7766
-36.5237
-31.5562
-26.1896
-20.9929
-16.1744
-11.4859
-7.82199
-4.26802
-2.17057
16.0293
15.557
14.2251
12.0653
8.76535
3.96592
-2.82915
-11.566
-22.0474
-29.9979
-34.2595
-33.7712
-29.9822
-25.3902
-20.6085
-16.1438
-11.6158
-8.05594
-4.35938
-2.26712
15.2934
14.7991
13.3795
11.1038
7.72869
2.97833
-3.47279
-11.469
-20.5047
-27.5572
-31.4609
-31.5162
-28.6039
-24.6128
-20.2001
-16.0251
-11.663
-8.2148
-4.4204
-2.33964
14.6677
14.1553
12.6702
10.3123
6.89976
2.21596
-3.93805
-11.3456
-19.298
-25.7138
-29.2881
-29.6768
-27.4661
-23.9739
-19.8595
-15.9344
-11.703
-8.34213
-4.4719
-2.39768
14.1592
13.6325
12.1002
9.68443
6.25789
1.6366
-4.26862
-11.2458
-18.3761
-24.2964
-27.6098
-28.2335
-26.5867
-23.4282
-19.5868
-15.8328
-11.7027
-8.41809
-4.49895
-2.4352
13.7729
13.2359
11.671
9.21615
5.78163
1.20976
-4.50326
-11.1359
-17.7757
-23.1996
-26.3685
-27.2633
-25.932
-23.0177
-19.3659
-15.7564
-11.7046
-8.4785
-4.52474
-2.46632
13.5127
12.9688
11.3836
8.90556
5.46757
0.9334
-4.64529
-11.0626
-17.3561
-22.5696
-25.6825
-26.4748
-25.4686
-22.7282
-19.2082
-15.6975
-11.6954
-8.51008
-4.53568
-2.48254
13.3821
12.8343
11.2393
8.74985
5.30933
0.79042
-4.7236
-11.0513
-17.1358
-22.2688
-25.3078
-26.0704
-25.2865
-22.5869
-19.1285
-15.6674
-11.6927
-8.529
-4.54351
-2.49358
31.0573
25.1984
28.6197
29.3001
32.4769
39.3366
27.3774
25.1883
27.3153
28.501
31.418
36.9744
44.811
55.2805
-28.0525
-15.4151
-5.95846
-0.458422
1.16548
1.12425
25.5117
24.7229
25.8816
27.3138
29.3588
32.5342
33.2998
29.2114
-28.2051
-28.6791
-14.9972
-5.72517
-1.99995
-0.895073
0.488638
24.4423
23.8121
24.5661
25.4167
26.3414
26.8506
23.6087
12.2763
-54.1978
-87.0821
-40.3731
-29.3486
-24.7939
-13.7839
-6.54679
-3.476
-2.38649
-0.243541
23.2967
22.8105
23.125
23.3943
23.2373
21.8709
15.6508
-4.47611
-48.1752
-76.2486
-98.068
-73.4318
-42.2979
-30.7737
-23.7859
-14.6048
-8.07319
-4.26478
-2.87579
-0.763147
22.1526
21.7242
21.6675
21.3856
20.3567
17.5381
10.281
-8.90562
-46.4428
-66.6297
-74.7643
-60.6452
-40.0736
-30.1317
-23.087
-15.3106
-9.12913
-5.27482
-3.30553
-1.13582
21.005
20.6014
20.222
19.4522
17.6987
14.0385
6.08053
-9.7444
-39.2214
-55.994
-63.4498
-53.3848
-38.8874
-29.6629
-22.8096
-15.7693
-10.0147
-6.04008
-3.58464
-1.45499
19.8863
19.483
18.8299
17.6434
15.3503
11.1497
3.13425
-10.722
-33.904
-48.2406
-54.6535
-48.5629
-37.1811
-28.8317
-22.3311
-16.0035
-10.5944
-6.66425
-3.83714
-1.71183
18.8109
18.3969
17.5155
15.9885
13.2935
8.75697
0.900868
-11.2547
-29.7066
-41.9374
-47.7503
-43.6864
-35.1449
-27.9031
-21.8933
-16.1648
-11.0344
-7.18053
-4.0325
-1.90823
17.7988
17.3693
16.301
14.5029
11.5227
6.80317
-0.737066
-11.5097
-26.4882
-37.0111
-42.163
-39.8329
-33.3736
-27.1028
-21.4789
-16.2198
-11.3185
-7.56454
-4.17723
-2.06352
16.8671
16.4169
15.1996
13.1924
10.0182
5.22508
-1.95231
-11.6011
-24.0141
-33.0804
-37.7857
-36.5126
-31.5149
-26.1534
-20.9972
-16.18
-11.4974
-7.86171
-4.29261
-2.18479
16.0286
15.5554
14.2228
12.0584
8.75878
3.964
-2.84053
-11.5728
-22.0507
-29.9976
-34.2694
-33.757
-29.9698
-25.3531
-20.6123
-16.1439
-11.6249
-8.08727
-4.37906
-2.27852
15.2927
14.7979
13.3777
11.0984
7.72407
2.97413
-3.48025
-11.4715
-20.5064
-27.5583
-31.4692
-31.504
-28.5965
-24.5898
-20.198
-16.0256
-11.6694
-8.23863
-4.43538
-2.3485
14.6674
14.1544
12.6689
10.3082
6.89791
2.2116
-3.9429
-11.3471
-19.2995
-25.7152
-29.2948
-29.6668
-27.4612
-23.945
-19.8596
-15.9382
-11.7075
-8.36034
-4.48374
-2.40459
14.159
13.6318
12.0992
9.68167
6.25671
1.63411
-4.27085
-11.2467
-18.3776
-24.2978
-27.6142
-28.228
-26.5814
-23.4011
-19.5756
-15.8361
-11.7058
-8.43193
-4.50782
-2.44052
13.7726
13.2353
11.6702
9.21445
5.77978
1.2083
-4.50427
-11.1359
-17.7767
-23.2006
-26.371
-27.2607
-25.9276
-22.9981
-19.3531
-15.7573
-11.7058
-8.48878
-4.53123
-2.47017
13.5125
12.9685
11.3832
8.9045
5.46623
0.932494
-4.64558
-11.0622
-17.3565
-22.5702
-25.6843
-26.4728
-25.4667
-22.717
-19.1987
-15.6977
-11.6952
-8.51698
-4.53958
-2.48503
13.3821
12.8342
11.239
8.74932
5.30863
0.790126
-4.72344
-11.0507
-17.1361
-22.269
-25.309
-26.0691
-25.2861
-22.5822
-19.1241
-15.6691
-11.6939
-8.5355
-4.54742
-2.4958
31.0698
25.1866
28.5522
29.2605
32.5278
39.3637
27.3813
25.1815
27.2895
28.4775
31.4116
36.9733
44.7221
55.2695
-27.2795
-15.8463
-6.08249
-0.297103
1.18521
1.06853
25.5195
24.7276
25.8811
27.3183
29.3715
32.5819
33.3441
29.1092
-30.0804
-28.0696
-15.4309
-5.94211
-1.7813
-0.665885
0.505176
24.4505
23.8218
24.5757
25.4284
26.3624
26.9127
23.6677
12.3068
-54.3627
-87.6205
-40.4009
-29.2178
-24.2467
-13.9765
-6.66771
-3.3771
-2.31012
-0.198375
23.3034
22.8208
23.1374
23.4076
23.259
21.9172
15.6684
-4.47335
-48.3399
-76.4909
-97.9098
-73.3513
-42.1644
-30.7409
-23.5091
-14.682
-8.07145
-4.28426
-2.84397
-0.734445
22.1586
21.733
21.6791
21.3972
20.3747
17.5727
10.2953
-8.88904
-46.5611
-66.7321
-74.8418
-60.7647
-40.0536
-30.167
-22.95
-15.3288
-9.12993
-5.31239
-3.28454
-1.11847
21.0098
20.6088
20.2324
19.4621
17.7126
14.0627
6.08953
-9.74905
-39.282
-56.0915
-63.5575
-53.4635
-38.7934
-29.7157
-22.7523
-15.7782
-10.009
-6.0691
-3.5783
-1.43943
19.89
19.4887
18.8382
17.6515
15.3599
11.1569
3.1344
-10.7361
-33.9497
-48.3086
-54.6891
-48.6355
-37.1378
-28.8391
-22.2928
-16.003
-10.5869
-6.68636
-3.83703
-1.69849
18.8136
18.4006
17.5211
15.9943
13.2992
8.76009
0.894472
-11.2744
-29.7362
-41.9847
-47.7675
-43.7275
-35.1427
-27.9162
-21.8809
-16.1644
-11.028
-7.19893
-4.03486
-1.89793
17.8006
17.3712
16.3045
14.5068
11.5264
6.80769
-0.741286
-11.5224
-26.5071
-37.0376
-42.1886
-39.8625
-33.3687
-27.1181
-21.474
-16.2198
-11.3137
-7.5791
-4.1799
-2.05519
16.8682
16.4179
15.202
13.1951
10.0209
5.23049
-1.95389
-11.61
-24.0251
-33.0954
-37.8084
-36.5193
-31.5196
-26.1595
-20.9948
-16.1809
-11.4931
-7.87327
-4.29533
-2.1786
16.0294
15.5561
14.2246
12.0604
8.76097
3.96797
-2.84162
-11.5779
-22.0586
-30.0055
-34.2863
-33.7551
-29.9784
-25.3549
-20.6073
-16.1421
-11.6214
-8.09677
-4.38144
-2.27367
15.2933
14.7984
13.379
11.0997
7.72579
2.97611
-3.48156
-11.4739
-20.5109
-27.5629
-31.4812
-31.5004
-28.6039
-24.5832
-20.1952
-16.0249
-11.6663
-8.2465
-4.43769
-2.34487
14.6678
14.1547
12.6698
10.309
6.89987
2.21278
-3.94441
-11.3491
-19.3025
-25.7182
-29.3037
-29.661
-27.4678
-23.9333
-19.8615
-15.937
-11.7053
-8.36695
-4.48614
-2.40199
14.1591
13.632
12.0998
9.68215
6.25795
1.63457
-4.27219
-11.2483
-18.3799
-24.2999
-27.6197
-28.2245
-26.586
-23.4025
-19.5735
-15.8345
-11.704
-8.4373
-4.51006
-2.43869
13.7725
13.2354
11.6706
9.21466
5.78002
1.20773
-4.50588
-11.1371
-17.7783
-23.202
-26.3738
-27.2588
-25.9311
-23.0007
-19.3547
-15.7569
-11.7044
-8.49313
-4.53363
-2.46911
13.5125
12.9686
11.3833
8.90443
5.46598
0.93153
-4.64703
-11.0632
-17.3577
-22.5711
-25.6865
-26.4708
-25.469
-22.7181
-19.2001
-15.6983
-11.6938
-8.52014
-4.5417
-2.48454
13.382
12.8341
11.2389
8.74898
5.30791
0.789052
-4.72474
-11.0515
-17.1372
-22.2697
-25.3106
-26.0678
-25.288
-22.5856
-19.1256
-15.6699
-11.6928
-8.53796
-4.54917
-2.49543
31.0718
25.1781
28.5102
29.2629
32.5421
39.3615
27.3815
25.1755
27.2724
28.4682
31.4044
36.9654
44.7026
55.3684
-26.4971
-16.1552
-6.28064
-0.157527
1.22756
1.11158
25.5211
24.7218
25.8741
27.3158
29.3693
32.5913
33.3496
29.0999
-31.1184
-27.3049
-15.7468
-6.17621
-1.56179
-0.563939
0.525434
24.452
23.8187
24.5734
25.4289
26.3613
26.9298
23.6718
12.307
-54.4288
-87.7662
-41.0478
-29.3186
-23.7707
-14.1825
-6.76209
-3.23938
-2.25818
-0.178273
23.3049
22.8197
23.1373
23.4098
23.26
21.9318
15.654
-4.48326
-48.4579
-76.6493
-97.7642
-73.2258
-42.0887
-30.8056
-23.3111
-14.7803
-8.08021
-4.23526
-2.81402
-0.716895
22.1604
21.7327
21.68
21.3995
20.3763
17.5845
10.288
-8.88543
-46.6427
-66.7582
-74.8543
-60.8094
-40.0389
-30.2019
-22.834
-15.3577
-9.14118
-5.29696
-3.26019
-1.10594
21.0114
20.6088
20.2339
19.4646
17.715
14.0716
6.0847
-9.75585
-39.3212
-56.1244
-63.5903
-53.479
-38.7631
-29.7421
-22.6899
-15.7932
-10.0063
-6.0597
-3.56139
-1.42719
19.8913
19.4889
18.8397
17.6539
15.3625
11.1606
3.12729
-10.7439
-33.9755
-48.3384
-54.684
-48.6813
-37.1089
-28.8713
-22.2578
-16.0049
-10.5803
-6.68278
-3.82543
-1.68848
18.8147
18.401
17.5228
15.9967
13.3013
8.76216
0.888344
-11.2832
-29.7514
-42.0072
-47.7708
-43.7601
-35.1105
-27.9536
-21.8707
-16.1663
-11.0225
-7.19643
-4.02567
-1.88969
17.8013
17.3719
16.3063
14.5091
11.5282
6.80969
-0.744896
-11.5274
-26.5166
-37.0508
-42.1984
-39.8892
-33.3553
-27.1437
-21.4673
-16.2196
-11.3085
-7.57808
-4.17374
-2.0485
16.8689
16.4185
15.2036
13.1972
10.0223
5.23204
-1.95532
-11.6132
-24.0313
-33.104
-37.8177
-36.5275
-31.5149
-26.1745
-20.9928
-16.1816
-11.4883
-7.87205
-4.29037
-2.17316
16.03
15.5566
14.2258
12.062
8.76223
3.96953
-2.84255
-11.5802
-22.0633
-30.0099
-34.2955
-33.757
-29.9747
-25.3651
-20.6059
-16.142
-11.6172
-8.09625
-4.37796
-2.26918
15.2938
14.7987
13.3799
11.1008
7.72666
2.977
-3.48223
-11.4752
-20.5135
-27.5653
-31.4889
-31.4997
-28.6015
-24.5878
-20.1935
-16.0252
-11.6631
-8.24593
-4.43508
-2.34115
14.6683
14.1549
12.6704
10.3096
6.90063
2.21364
-3.94482
-11.35
-19.3045
-25.7196
-29.3104
-29.6577
-27.4667
-23.9371
-19.8584
-15.9352
-11.7027
-8.3667
-4.48446
-2.39895
14.1594
13.6321
12.1002
9.68258
6.25854
1.63511
-4.27241
-11.2489
-18.3813
-24.3007
-27.624
-28.2221
-26.5863
-23.4024
-19.5726
-15.8335
-11.7022
-8.4371
-4.50901
-2.43625
13.7727
13.2355
11.6708
9.21488
5.78011
1.20769
-4.50643
-11.1377
-17.7795
-23.2027
-26.3762
-27.2572
-25.9319
-22.9991
-19.3564
-15.7567
-11.703
-8.49328
-4.53329
-2.46737
13.5126
12.9686
11.3834
8.90444
5.46588
0.931281
-4.64767
-11.0639
-17.3586
-22.5718
-25.6886
-26.4691
-25.4698
-22.7154
-19.2016
-15.6981
-11.6927
-8.52049
-4.54173
-2.48327
13.3821
12.8341
11.2389
8.74886
5.30762
0.788509
-4.72563
-11.0522
-17.1381
-22.2703
-25.3122
-26.0667
-25.2885
-22.5845
-19.1262
-15.6693
-11.6916
-8.53819
-4.54926
-2.49442
31.0701
25.1706
28.4918
29.2792
32.5353
39.3482
27.3794
25.1695
27.2617
28.4644
31.3945
36.9497
44.6809
55.5499
-25.7888
-16.3125
-6.51589
-0.0251049
1.36487
1.14042
25.5208
24.7145
25.8679
27.3105
29.3604
32.5775
33.3193
29.1246
-31.7274
-26.4646
-15.9256
-6.41316
-1.51426
-0.464185
0.526542
24.4512
23.8141
24.5688
25.4242
26.3501
26.9169
23.6271
12.3025
-54.496
-87.5763
-42.3227
-29.5944
-23.3226
-14.3345
-6.86229
-3.19313
-2.22594
-0.186618
23.3044
22.8164
23.1337
23.406
23.2505
21.9219
15.6134
-4.49581
-48.5075
-76.6544
-97.665
-73.1666
-42.0704
-30.9639
-23.1471
-14.8599
-8.11481
-4.20808
-2.80813
-0.718207
22.1604
21.7302
21.6774
21.3965
20.3687
17.5778
10.2606
-8.89247
-46.6927
-66.7574
-74.8154
-60.8186
-40.0404
-30.2808
-22.7483
-15.3824
-9.16857
-5.28488
-3.25065
-1.10416
21.0113
20.6069
20.2322
19.4622
17.7097
14.0676
6.06707
-9.76656
-39.3407
-56.1321
-63.5847
-53.4773
-38.7278
-29.7863
-22.6511
-15.8104
-10.0168
-6.05222
-3.55497
-1.42415
19.8914
19.4875
18.8386
17.652
15.3588
11.1577
3.11522
-10.7511
-33.9883
-48.3496
-54.6611
-48.7107
-37.0811
-28.9026
-22.2388
-16.009
-10.5829
-6.68181
-3.82099
-1.68593
18.815
18.4001
17.5221
15.9953
13.2983
8.76036
0.880922
-11.2902
-29.7581
-42.0153
-47.7616
-43.78
-35.0783
-27.9759
-21.865
-16.1696
-11.0242
-7.19671
-4.02188
-1.88756
17.8018
17.3713
16.306
14.5081
11.526
6.8086
-0.749895
-11.5322
-26.5205
-37.0556
-42.1931
-39.9099
-33.3358
-27.1589
-21.4626
-16.2196
-11.3082
-7.57863
-4.17139
-2.04655
16.8689
16.4182
15.2035
13.1964
10.0206
5.23095
-1.95875
-11.6167
-24.0342
-33.1069
-37.8173
-36.5368
-31.5013
-26.1836
-20.9921
-16.1826
-11.488
-7.87228
-4.28818
-2.17144
16.0301
15.5563
14.2258
12.0614
8.76095
3.96892
-2.84508
-11.5828
-22.0659
-30.011
-34.2985
-33.7622
-29.9646
-25.3719
-20.6063
-16.1422
-11.6163
-8.09666
-4.37654
-2.2677
15.294
14.7985
13.3799
11.1003
7.72567
2.97629
-3.48398
-11.4767
-20.515
-27.5656
-31.4929
-31.5013
-28.5947
-24.5921
-20.1936
-16.026
-11.6627
-8.24609
-4.43384
-2.33966
14.6685
14.1547
12.6704
10.3092
6.89997
2.21325
-3.94594
-11.3509
-19.3058
-25.7197
-29.3153
-29.6564
-27.4627
-23.9399
-19.8587
-15.9348
-11.702
-8.36679
-4.48367
-2.39761
14.1595
13.632
12.1002
9.68226
6.25813
1.63482
-4.27307
-11.2494
-18.3823
-24.3008
-27.6275
-28.2211
-26.5844
-23.4014
-19.5728
-15.8334
-11.7019
-8.43709
-4.50838
-2.43498
13.7728
13.2355
11.6708
9.21465
5.77969
1.20736
-4.50698
-11.138
-17.7803
-23.2032
-26.3783
-27.2562
-25.9311
-22.9971
-19.3574
-15.7563
-11.7026
-8.49334
-4.53295
-2.46632
13.5127
12.9686
11.3833
8.90426
5.46563
0.931071
-4.64805
-11.0642
-17.3594
-22.5721
-25.6906
-26.4679
-25.4695
-22.7132
-19.2027
-15.6973
-11.6924
-8.52063
-4.54157
-2.48237
13.3821
12.8341
11.2389
8.74873
5.30741
0.788253
-4.72614
-11.0527
-17.1389
-22.2707
-25.3137
-26.066
-25.2887
-22.583
-19.1272
-15.6686
-11.691
-8.53821
-4.54915
-2.49363
31.0684
25.1641
28.4905
29.2944
32.5223
39.3363
27.3769
25.1655
27.2561
28.4637
31.387
36.9345
44.6642
55.6627
-25.2268
-16.3085
-6.76735
0.0530479
1.5693
1.13665
25.5204
24.7093
25.8651
27.3074
29.3525
32.5686
33.2982
29.1565
-32.1309
-25.5863
-15.9699
-6.63867
-1.50056
-0.34635
0.533184
24.4505
23.8115
24.5667
25.4212
26.3416
26.9091
23.5969
12.3072
-54.4873
-87.2981
-43.4885
-29.8421
-22.9171
-14.4064
-6.97192
-3.16511
-2.1832
-0.190745
23.3038
22.8143
23.1316
23.403
23.2431
21.9157
15.5887
-4.49352
-48.4968
-76.6054
-97.6088
-73.073
-42.0897
-31.1121
-22.9979
-14.8853
-8.1562
-4.1955
-2.80355
-0.717697
22.1599
21.7286
21.6758
21.3937
20.3625
17.573
10.242
-8.89448
-46.705
-66.7557
-74.7898
-60.8321
-40.0551
-30.3614
-22.667
-15.3835
-9.20022
-5.28089
-3.24306
-1.10073
21.0108
20.6058
20.2311
19.4601
17.7049
14.0642
6.05314
-9.77249
-39.3483
-56.1365
-63.5804
-53.4915
-38.6931
-29.8287
-22.6177
-15.816
-10.0316
-6.05038
-3.55195
-1.4216
19.8913
19.4866
18.8378
17.6502
15.3552
11.1546
3.10484
-10.7566
-33.9956
-48.3581
-54.639
-48.7397
-37.0615
-28.9282
-22.2238
-16.0065
-10.5887
-6.68459
-3.81932
-1.68382
18.815
18.3994
17.5215
15.9938
13.2953
8.75797
0.874132
-11.2965
-29.7621
-42.0215
-47.7529
-43.7996
-35.0547
-27.9881
-21.8588
-16.1695
-11.0286
-7.19958
-4.02046
-1.88596
17.802
17.3707
16.3055
14.5068
11.5236
6.80706
-0.75477
-11.5372
-26.5236
-37.0598
-42.1852
-39.9323
-33.3194
-27.1678
-21.4587
-16.2179
-11.3098
-7.58115
-4.17078
-2.04527
16.8692
16.4177
15.203
13.1954
10.0187
5.22969
-1.96229
-11.6207
-24.0361
-33.1091
-37.815
-36.5493
-31.4877
-26.1878
-20.9913
-16.1826
-11.4896
-7.87458
-4.28749
-2.17041
16.0302
15.556
14.2255
12.0605
8.7595
3.96807
-2.8477
-11.5857
-22.0677
-30.0116
-34.299
-33.771
-29.9546
-25.3752
-20.6061
-16.1417
-11.617
-8.09857
-4.37628
-2.26686
15.2941
14.7982
13.3796
11.0996
7.72461
2.97544
-3.48591
-11.4784
-20.5161
-27.5657
-31.4949
-31.5061
-28.5882
-24.5938
-20.1934
-16.0262
-11.6635
-8.24762
-4.43364
-2.33876
14.6684
14.1545
12.6703
10.3087
6.89925
2.21266
-3.9473
-11.3521
-19.307
-25.7195
-29.3189
-29.6575
-27.4589
-23.9401
-19.8597
-15.9349
-11.7022
-8.36789
-4.4838
-2.39681
14.1594
13.6318
12.1001
9.68187
6.2576
1.63437
-4.27399
-11.2501
-18.3833
-24.3007
-27.6304
-28.2216
-26.5824
-23.4004
-19.5731
-15.8333
-11.702
-8.4379
-4.50852
-2.43419
13.7728
13.2353
11.6707
9.21435
5.77923
1.20692
-4.50771
-11.1384
-17.7811
-23.2035
-26.3801
-27.2562
-25.9301
-22.9962
-19.358
-15.7561
-11.7026
-8.49388
-4.53315
-2.46563
13.5126
12.9685
11.3833
8.90403
5.4653
0.930778
-4.64854
-11.0645
-17.3601
-22.5724
-25.6924
-26.4675
-25.4691
-22.712
-19.2034
-15.6969
-11.6923
-8.52105
-4.54171
-2.48175
13.382
12.834
11.2388
8.74855
5.30713
0.787969
-4.72661
-11.053
-17.1396
-22.271
-25.315
-26.0656
-25.2887
-22.581
-19.1277
-15.6683
-11.691
-8.53838
-4.54919
-2.49307
31.067
25.159
28.4933
29.3063
32.512
39.3367
27.3747
25.1629
27.2529
28.464
31.3812
36.9221
44.6488
55.7346
-24.8612
-16.1708
-7.00966
0.083692
1.80167
1.11191
25.5194
24.7056
25.8633
27.3055
29.346
32.5636
33.2869
29.1831
-32.4133
-24.9397
-15.8485
-6.85126
-1.47793
-0.226936
0.550646
24.4495
23.8097
24.5654
25.42
26.3365
26.9073
23.584
12.3137
-54.4654
-87.0837
-44.1389
-30.0447
-22.6126
-14.3902
-7.07408
-3.12771
-2.13516
-0.185615
23.3033
22.8128
23.1302
23.4015
23.2388
21.9147
15.5788
-4.48659
-48.4632
-76.5478
-97.581
-73.0134
-42.1081
-31.2313
-22.8693
-14.8651
-8.19087
-4.18051
-2.79006
-0.710478
22.1596
21.7276
21.6748
21.3923
20.3587
17.572
10.2329
-8.89237
-46.6862
-66.7514
-74.777
-60.8426
-40.0704
-30.4256
-22.5902
-15.3623
-9.23109
-5.27529
-3.22826
-1.09274
21.0105
20.6051
20.2305
19.459
17.7018
14.0632
6.04528
-9.77378
-39.3455
-56.135
-63.5754
-53.5157
-38.6663
-29.8612
-22.5846
-15.8072
-10.0458
-6.04776
-3.54469
-1.41674
19.891
19.486
18.8373
17.6493
15.3527
11.1531
3.09809
-10.7597
-33.9966
-48.3628
-54.6208
-48.7666
-37.0487
-28.949
-22.2095
-15.9964
-10.594
-6.68655
-3.8145
-1.67982
18.8147
18.3989
17.5211
15.993
13.2933
8.7564
0.869197
-11.3012
-29.7633
-42.0262
-47.7456
-43.8206
-35.0355
-27.9969
-21.8521
-16.165
-11.0329
-7.20146
-4.01688
-1.88313
17.8018
17.3703
16.3052
14.5062
11.522
6.80596
-0.758444
-11.541
-26.5249
-37.0643
-42.1757
-39.9556
-33.3063
-27.1743
-21.4559
-16.214
-11.3115
-7.58277
-4.16858
-2.04317
16.8692
16.4174
15.2028
13.1948
10.0174
5.22878
-1.96494
-11.624
-24.0371
-33.1113
-37.8112
-36.5639
-31.4762
-26.1894
-20.9902
-16.1811
-11.4914
-7.87616
-4.28547
-2.16882
16.0301
15.5557
14.2253
12.0601
8.75857
3.9675
-2.84962
-11.5882
-22.0689
-30.0124
-34.2976
-33.7827
-29.9455
-25.377
-20.6058
-16.1405
-11.618
-8.0997
-4.37491
-2.26568
15.2941
14.798
13.3795
11.0992
7.72391
2.97488
-3.48736
-11.4801
-20.5169
-27.5657
-31.4954
-31.5133
-28.5817
-24.5944
-20.1928
-16.0259
-11.6645
-8.2486
-4.43281
-2.33767
14.6682
14.1544
12.6702
10.3083
6.89875
2.21225
-3.94836
-11.3531
-19.3079
-25.7192
-29.3212
-29.6609
-27.4553
-23.9396
-19.8599
-15.9348
-11.7026
-8.36854
-4.48341
-2.39587
14.1593
13.6317
12.1
9.68161
6.25723
1.63402
-4.27476
-11.2507
-18.3841
-24.3004
-27.6323
-28.2237
-26.5804
-23.3997
-19.5733
-15.8332
-11.7023
-8.43846
-4.5084
-2.4333
13.7728
13.2352
11.6706
9.21413
5.77888
1.20657
-4.5084
-11.1389
-17.7818
-23.2038
-26.3813
-27.2573
-25.9291
-22.9956
-19.3588
-15.7561
-11.7027
-8.49425
-4.53316
-2.46491
13.5126
12.9684
11.3832
8.90382
5.465
0.93049
-4.64906
-11.0648
-17.3608
-22.5726
-25.6937
-26.4678
-25.4686
-22.7113
-19.2042
-15.6968
-11.6924
-8.52135
-4.54178
-2.48113
13.382
12.8339
11.2387
8.74836
5.30683
0.787672
-4.72711
-11.0533
-17.1402
-22.2712
-25.3161
-26.0655
-25.2886
-22.5799
-19.1279
-15.6682
-11.6912
-8.5385
-4.54918
-2.49256
31.0655
25.1554
28.4947
29.3153
32.5046
39.3373
27.3725
25.1607
27.2504
28.4641
31.3756
36.9126
44.6372
55.7785
-24.7033
-15.9323
-7.21916
0.0651719
2.02414
1.08468
25.5179
24.7029
25.8611
27.3035
29.3394
32.5573
33.2787
29.2009
-32.6968
-24.5567
-15.6121
-7.04247
-1.45901
-0.121948
0.574939
24.4481
23.808
24.5639
25.4188
26.3315
26.9037
23.5754
12.3147
-54.4619
-86.9638
-44.4789
-30.2382
-22.4323
-14.298
-7.16025
-3.10082
-2.09651
-0.176521
23.3024
22.8113
23.1285
23.4
23.2347
21.9122
15.5723
-4.48256
-48.4343
-76.5036
-97.5658
-72.9876
-42.0971
-31.3455
-22.7869
-14.8116
-8.21957
-4.16602
-2.77313
-0.701221
22.1589
21.7266
21.6735
21.3912
20.3553
17.57
10.2268
-8.89094
-46.6606
-66.7388
-74.7624
-60.8345
-40.0742
-30.4781
-22.5338
-15.3228
-9.2602
-5.2689
-3.20959
-1.08331
21.01
20.6043
20.2295
19.458
17.6991
14.0616
6.0401
-9.77401
-39.3383
-56.1289
-63.5628
-53.5362
-38.6416
-29.8869
-22.5595
-15.7882
-10.0589
-6.04412
-3.53402
-1.41135
19.8906
19.4855
18.8366
17.6485
15.3505
11.1515
3.0936
-10.7613
-33.9928
-48.3628
-54.604
-48.7852
-37.0374
-28.9655
-22.1981
-15.9814
-10.5991
-6.68697
-3.80669
-1.67513
18.8141
18.3984
17.5206
15.9924
13.2916
8.75501
0.865801
-11.304
-29.7615
-42.0277
-47.7372
-43.8393
-35.0178
-28.0019
-21.8458
-16.1574
-11.0375
-7.20192
-4.01121
-1.87992
17.8014
17.37
16.3048
14.5057
11.5207
6.80492
-0.761058
-11.5436
-26.5241
-37.0675
-42.1638
-39.9769
-33.2949
-27.1779
-21.4536
-16.2088
-11.3133
-7.58297
-4.16461
-2.04085
16.8689
16.4171
15.2025
13.1944
10.0165
5.22791
-1.96689
-11.6265
-24.0367
-33.1127
-37.805
-36.5785
-31.4658
-26.1892
-20.9889
-16.1786
-11.4934
-7.87654
-4.28238
-2.16718
16.0298
15.5555
14.2251
12.0598
8.75784
3.9669
-2.85101
-11.5901
-22.0692
-30.0131
-34.2935
-33.7957
-29.9368
-25.3778
-20.6054
-16.139
-11.6189
-8.09967
-4.37253
-2.26451
15.2938
14.7978
13.3793
11.0989
7.72336
2.97435
-3.48844
-11.4814
-20.517
-27.5655
-31.4938
-31.5221
-28.5753
-24.5942
-20.1921
-16.0253
-11.6654
-8.24871
-4.43121
-2.3366
14.668
14.1542
12.6701
10.3081
6.89834
2.21188
-3.94918
-11.354
-19.3084
-25.7187
-29.3218
-29.6659
-27.4515
-23.9387
-19.86
-15.9346
-11.7029
-8.36851
-4.48236
-2.39494
14.1592
13.6316
12.0999
9.68141
6.25692
1.63372
-4.27536
-11.2512
-18.3846
-24.2999
-27.6331
-28.227
-26.5781
-23.3988
-19.5733
-15.8328
-11.7026
-8.4385
-4.50778
-2.43243
13.7727
13.2351
11.6705
9.21396
5.7786
1.20628
-4.50894
-11.1393
-17.7822
-23.2039
-26.3818
-27.2591
-25.9278
-22.9948
-19.3591
-15.756
-11.7029
-8.49426
-4.53274
-2.46419
13.5125
12.9683
11.3831
8.90366
5.46475
0.93025
-4.64947
-11.065
-17.3613
-22.5725
-25.6945
-26.4689
-25.4678
-22.7104
-19.2048
-15.6967
-11.6925
-8.52138
-4.54155
-2.48051
13.382
12.8338
11.2386
8.7482
5.30658
0.787413
-4.72755
-11.0535
-17.1407
-22.2712
-25.3168
-26.066
-25.2885
-22.5791
-19.128
-15.6681
-11.6913
-8.53848
-4.54903
-2.49204
31.0637
25.1525
28.4939
29.3208
32.498
39.334
27.3705
25.1584
27.2481
28.463
31.3693
36.9034
44.6268
55.7845
-24.7389
-15.5967
-7.37547
0.0358435
2.18643
1.07897
25.5163
24.7008
25.8583
27.3014
29.3326
32.5496
33.2735
29.2134
-32.8989
-24.4565
-15.2917
-7.19685
-1.4499
-0.0351896
0.602277
24.4465
23.8064
24.562
25.4172
26.3265
26.8982
23.5686
12.3164
-54.4662
-86.9
-44.612
-30.4191
-22.3738
-14.1465
-7.22369
-3.0968
-2.07456
-0.164945
23.301
22.8097
23.1266
23.3982
23.2303
21.9078
15.5667
-4.48114
-48.4159
-76.4713
-97.5472
-72.9292
-42.0515
-31.4535
-22.7562
-14.7358
-8.24733
-4.15932
-2.7564
-0.691192
22.1577
21.7254
21.6721
21.3897
20.3518
17.5667
10.2219
-8.8904
-46.6437
-66.72
-74.7511
-60.8068
-40.0629
-30.5241
-22.5033
-15.271
-9.28579
-5.26708
-3.19127
-1.07436
21.0093
20.6033
20.2284
19.4568
17.6964
14.0591
6.03624
-9.77377
-39.3312