/*--------------------------------*- C++ -*----------------------------------*\
  =========                 |
  \\      /  F ield         | OpenFOAM: The Open Source CFD Toolbox
   \\    /   O peration     | Website:  https://openfoam.org
    \\  /    A nd           | Version:  10
     \\/     M anipulation  |
\*---------------------------------------------------------------------------*/
FoamFile
{
    format      ascii;
    class       surfaceScalarField;
    location    "2000";
    object      phi;
}
// * * * * * * * * * * * * * * * * * * * * * * * * * * * * * * * * * * * * * //

dimensions      [0 3 -1 0 0 0 0];

internalField   nonuniform List<scalar> 
164653
(
-2.33605
25.4636
87.1026
2.29169
0.332693
-25.1189
25.0103
83.4115
-0.105694
0.240099
-0.137772
-0.250697
0.198053
-24.9201
24.6832
84.0502
0.139244
0.318854
-0.195151
-0.140223
-0.581092
-6.46815
6.53677
22.025
0.630172
-0.102015
-5.73076
5.53111
19.5251
0.21309
-2.62715
4.36187
0.045588
16.6951
-0.0579349
-13.7094
103.97
13.5293
357.987
13.608
-103.719
103.146
-12.9949
353.83
8.21178
-102.301
102.118
-7.57341
351.588
-2.86618
-102.346
101.47
11.4041
354.555
-2.81
-2.06177
-2.85939
-3.06754
-100.518
99.0847
16.0099
353.653
-3.39079
-4.33981
-4.69787
-4.37744
-96.6804
92.7777
24.4646
347.092
-4.92457
-4.94391
-5.88298
-14.934
72.5825
336.283
-9.51734
-18.2785
-11.1263
-82.235
20.5295
20.4389
20.9405
21.0253
-3.94054
-18.2376
20.1618
86.3809
-6.01666
-5.49718
-7.93043
4.23849
6.05478
6.2784
4.62429
-0.644649
0.88024
5.21567
0.0709317
-0.95364
-1.75225
54.8214
0.446343
2.02145
0.423757
-1.95446
1.59297
-0.0339876
-0.0143781
0.268713
0.224244
-0.870722
4.72332
65.165
-1.98408
0.174856
0.223135
0.215109
-0.859914
-0.928444
-0.952119
0.488674
-7.73277
8.99723
68.1497
-1.54031
0.473543
-0.131075
-0.234748
0.345721
-12.0169
12.7319
70.712
-1.77375
0.395756
0.221982
0.164216
1.77742
-15.8898
16.4147
75.7983
-2.15932
426.603
-18.4513
1470.39
-13.5512
6.20428
9.33905
29.5522
422.21
-58.4413
1458.49
12.4887
13.1717
21.578
19.3416
422.989
-20.0355
1451.8
6.91298
-4.9971
14.4165
9.02214
418.509
21.4356
1459.33
-11.8501
-13.9488
8.05055
2.29148
411.019
35.8973
1462.51
-17.1958
-19.882
-0.513612
4.77762
384.607
141.166
1439.03
-27.4829
-62.1797
-12.9546
-45.9263
93.5181
231.458
1452.26
95.8451
88.8134
91.4601
-76.971
-61.021
-53.3936
-85.2597
-24.8455
102.157
358.114
24.2738
23.8649
21.7357
25.0189
-26.4983
-27.3474
-33.6756
-0.287304
-0.136653
4.63582
0.37041
4.52675
-55.8637
73.4237
-38.373
271.888
4.80449
5.67526
7.9584
6.48175
-82.1796
89.0692
-30.0409
313.051
5.52487
6.22778
5.12797
18.4821
-94.1711
97.6524
-23.2835
330.459
0.352043
-96.4075
104.284
8.39638
321.163
16.8325
-106.125
107.283
-18.2304
345.861
0.867294
-108.889
109.232
-1.35411
347.035
432.8
-17.3536
1489.28
430.465
-53.0882
1490.04
429.667
-15.9454
1486.26
427.479
24.7151
1489.11
427.245
51.901
1486.2
422.103
159.93
1488.72
114.507
201.674
1510.61
119.967
99.4766
112.947
-71.6929
109.8
67.7296
359.263
-35.4937
-30.7789
33.4974
86.0874
33.016
-11.1662
8.66936
2.49382
20.5251
0.0889733
1.47955
-6.53967
28.7091
-7.90059
75.7874
1.96968
1.48285
1.94561
-6.5367
-7.04162
-7.17917
4.25668
-29.5826
123.491
-5.84495
324.629
-4.04511
1.77301
-0.324636
-31.2526
-30.2811
-32.2671
492.818
-187.758
1363.74
41.8494
37.1317
51.8827
54.8889
-109.731
-126.595
-109.15
-127.081
482.224
-152.112
1449.71
30.4202
27.4917
51.3924
45.4344
487.046
-49.9932
1423.91
24.1183
-5.14043
36.9802
12.2484
472.143
-46.2566
1479.14
-22.322
4.73439
20.7297
30.9365
473.569
-14.91
1423.09
18.7801
7.87914
25.6778
-0.861465
19.005
1466.06
1.53503
10.0095
-10.8563
-17.9754
439.264
-16.2372
1511.59
437.905
-48.2817
1513.54
438.005
-12.4307
1510.5
437.455
26.8815
1512.62
436.85
53.3678
1509.63
442.812
153.77
1514.12
466.684
175.81
1489.48
123.87
290.937
1496.29
-78.5604
-119.512
-82.0036
-81.1978
123.833
139.81
139.102
-130.937
135.928
122.308
366.193
-11.5269
148.251
42.0116
357.319
-11.0102
-11.9037
-10.9201
-145.887
-6.15423
-38.5777
39.3677
90.2193
5.30989
3.63415
-147.981
143.091
7.16258
367.29
3.4887
-9.19021
-10.2437
26.9892
-136.847
133.416
-23.9677
357.28
520.185
-99.8295
1449.58
8.03133
27.1537
12.1877
24.5649
-124.414
-126.872
-134.98
-130.322
508.064
-163.01
1472.79
492.491
-120.623
1476.38
477.048
-73.8818
1480.65
483.748
-97.9845
1491.67
484.845
-15.2781
1492.33
16.3173
1498.41
444.776
-15.0852
1530.63
444.113
-43.7939
1532.96
445.088
-9.53107
1530.41
446.132
27.7936
1532.24
448.273
52.4996
1529.33
458.411
143.894
1533.96
481.863
151.554
1513.55
544.324
225.911
1513.15
574.456
171.706
1515.55
-111.756
-62.8431
-30.574
-7.36107
148.025
92.9022
1468.19
-39.4503
-32.2702
-13.8384
-11.6856
147.366
149.146
147.895
-5.62242
148.93
2.84779
372.64
557.687
-48.9157
1528.73
-10.4596
7.67537
8.40932
26.6406
-146.577
-145.851
-146.004
-144.892
559.905
-14.791
1498.49
21.0617
8.96602
-11.5444
-3.46521
529.25
-33.1336
1494.94
512.434
-147.781
1506.74
502.452
-110.085
1504.12
498.839
-68.094
1507.74
491.257
-91.7813
1518.22
491.207
-14.5121
1519.21
-10.6158
1524.86
449.544
-13.912
1547.14
449.417
-39.628
1549.52
451.185
-7.31182
1547.3
459.751
43.5864
1549.03
457.512
79.1361
1545.57
475.607
160.94
1551.62
492.744
186.724
1535.44
528.581
191.945
1538.74
562.76
141.04
1526.35
583.777
73.2901
1510.49
575.446
-6.40563
1503.78
-1.78923
4.68758
15.8986
18.49
560.961
-31.021
1510.8
551.473
-4.84175
1514.23
542.739
-97.0067
1587.59
516.633
-166.053
1574.42
507.057
-99.1457
1525.68
503.205
-61.7651
1529.44
495.153
-84.9307
1539.36
494.704
-13.571
1540.48
6.92823
1546.05
453.75
-12.6824
1561.64
454.051
-35.629
1563.91
456.475
-5.59202
1561.94
458.506
41.1923
1563.63
469.22
84.1827
1559.55
491.268
89.9001
1611.84
495.564
122.711
1619.87
527.609
159.559
1553.96
556.331
116.108
1547.95
571.788
59.6463
1536.06
567.476
-2.25928
1542.16
559.652
-20.029
1535.51
549.685
2.92101
1537.9
531.361
-63.5086
1562.87
519.217
-104.749
1530.81
510.409
-88.4593
1545.4
506.532
-55.4207
1548.95
498.252
-77.7345
1557.8
497.288
-12.5212
1558.9
5.76297
1564.19
465.184
7.88759
1574.6
466.339
23.1579
1576.67
466.982
46.375
1574.99
463.92
64.9747
1576.63
469.81
76.3797
1572.52
489.33
80.3573
1550.77
502.874
118.928
1583.87
530.304
173.815
1569.76
550.81
124.624
1565.92
564.334
48.3063
1556.64
561.898
0.141106
1563.18
551.047
17.0256
1533.34
548.093
22.0718
1539.31
525.439
-53.7937
1578.81
526.739
-81.7054
1549.78
513.114
-58.0571
1562.25
509.31
-49.1106
1565.56
500.782
-70.1849
1573.62
506.822
3.6579
1574.68
33.5881
1579.69
459.673
7.10463
1586.32
461.148
21.074
1588.22
464.176
42.0582
1586.79
468.587
58.5868
1588.43
474.991
68.1537
1584.65
494.688
69.5691
1565.96
495.325
102.008
1597.51
518.418
147.452
1584.85
546.322
104.937
1581
558.038
38.9696
1573.33
557.339
1.16078
1579.56
557.895
18.1757
1572.39
547.297
21.5732
1581.7
526.463
-44.9878
1592.56
523.011
-70.5037
1566.05
514.974
-50.2867
1576.86
511.365
-42.9977
1580.12
502.759
-62.5577
1587.46
501.17
3.3577
1588.26
29.812
1592.97
462.803
6.29236
1597.03
464.464
18.7816
1598.74
467.849
37.3524
1597.63
472.655
51.7979
1599.29
479.355
59.6591
1596.08
487.491
93.8661
1563.22
499.124
113.276
1580.66
524.972
107.19
1610.74
547.606
89.6557
1606.6
556.22
61.1809
1587.45
553.342
15.7189
1593.25
555.29
18.9673
1587.8
546.126
22.4138
1596.35
528.21
-37.8297
1604.72
524.119
-60.3382
1582
522.944
-31.8396
1589.79
513.226
-15.1869
1593.21
504.578
-54.8142
1599.84
502.35
3.05258
1600.6
26.1119
1605.04
465.708
5.46357
1606.92
467.513
16.3621
1608.46
471.159
32.4197
1607.64
476.242
44.7267
1609.33
483.02
51.0746
1606.5
489.216
79.7311
1604.51
502.129
95.7064
1609.29
522.807
88.3328
1607.65
537.211
73.8613
1603.11
547.714
50.5699
1599.7
551.775
16.7011
1605.17
554.543
27.5364
1601.32
545.023
28.6392
1609.33
521.915
13.237
1577.23
524.947
-28.2272
1566.89
519.003
-26.4406
1600.9
514.824
-12.495
1605.19
506.18
-46.9997
1611.12
503.423
2.75909
1611.77
22.4347
1615.94
468.393
4.58328
1616.15
470.313
13.7783
1617.52
474.17
27.2655
1617
479.424
37.445
1618.65
486.044
42.5169
1615.3
492.72
65.7572
1615.28
504.737
78.5215
1618.97
522.732
71.2645
1618.12
534.095
56.0127
1612.82
544.942
34.125
1611.18
547.701
14.0784
1615.86
550.476
24.1588
1613.44
544.081
25.6262
1621.07
538.141
12.5108
1621.62
525.953
-19.0399
1619.61
520.081
-20.1736
1607.02
516.285
-10.0601
1615.88
507.689
-39.1579
1621.53
504.455
2.44264
1622.08
18.7907
1626.01
470.92
3.6917
1624.81
472.907
11.1336
1625.99
476.93
21.9765
1625.77
482.228
30.0917
1627.2
482.97
41.1978
1614.18
495.713
49.0115
1616.1
507.201
61.847
1628.42
522.95
55.616
1627.44
535.397
43.3676
1622.53
543.104
26.6166
1621.64
546.04
11.4254
1625.41
554.632
-7.62408
1646.3
543.645
7.84628
1651.32
538.149
10.955
1632.16
528.581
-13.9797
1634.36
521.288
-15.795
1618.04
517.728
-7.82702
1625.93
509.248
-31.3375
1631.15
505.476
2.0564
1631.67
15.1338
1635.39
473.278
2.78252
1632.97
475.329
8.41254
1633.97
479.464
16.5704
1634.06
484.807
22.6193
1635.4
491.206
28.9279
1634.92
498.759
32.6896
1637.62
509.631
45.9643
1637.58
523.732
40.8115
1636.1
534.919
31.8513
1631.74
542.308
19.3759
1631.24
545.797
8.33416
1634.17
544.235
-5.10321
1631.72
543.534
6.46387
1634.66
538.475
8.80449
1641.92
529.352
-10.2821
1644.17
522.605
-11.6358
1628.4
519.191
-5.7052
1635.76
510.77
-23.4914
1640.21
506.535
1.65056
1640.54
11.4476
1644.17
475.521
1.88276
1640.71
477.611
5.63801
1641.54
481.832
11.0819
1641.97
487.262
15.1131
1643.41
496.261
22.3092
1643.68
501.751
27.4819
1646.38
512.155
30.4823
1645.91
524.569
26.8679
1644.15
535.067
20.898
1640.42
541.81
12.8113
1640.03
545.284
5.43402
1642.2
544.527
-3.32776
1640.63
543.887
4.5888
1644.31
539.062
6.19154
1650.98
527.356
-11.4863
1651.52
523.958
-15.827
1638.73
520.777
-3.70569
1645.09
512.433
-15.6658
1648.79
507.804
1.16241
1648.96
7.68163
1652.52
477.648
0.942582
1648.1
479.748
2.83495
1648.73
484.032
5.55513
1649.45
489.538
7.56527
1651.04
496.082
11.1701
1651.96
504.669
13.8029
1654.03
514.783
15.1973
1653.73
525.809
13.4386
1651.77
535.82
10.2568
1648.6
542.457
6.36246
1648.29
545.709
2.77489
1649.74
545.249
-1.76365
1648.97
544.538
2.41849
1653.32
539.86
3.21934
1659.48
530.76
-7.17228
1658.1
525.371
-8.62488
1648.36
522.422
-1.84312
1654
514.195
-7.85756
1656.95
509.065
0.587778
1657.07
3.85833
1660.51
479.658
1655.11
481.765
1655.53
486.091
1656.55
491.647
1658.22
498.89
1659.74
507.571
1661.31
517.458
1661.01
527.632
1658.75
537.123
1656.13
543.675
1655.87
547.069
1656.56
546.477
1656.63
545.68
1661.63
541.069
1667.19
531.923
1661.96
526.94
1653.82
524.088
1661.75
515.895
1663.84
510.291
1663.81
1667
-86.7954
0.00710805
25.3987
-0.0132884
86.6304
-84.7145
2.72393
-25.3617
25.275
-2.53365
84.6109
-85.4258
1.7923
-25.2709
25.2238
-1.82381
85.5044
-78.7809
9.19485
-23.534
22.57
-7.67645
78.2266
-81.1684
-23.5366
21.8391
-1.79842
77.8282
6.83609
-68.2908
-19.4066
18.1121
-2.97641
68.8321
3.72954
2.32937
-357.669
103.972
-2.18621
357.506
4.747
-353.882
102.974
-4.07444
353.861
-103.625
3.2576
-350.407
-102.114
101.498
-1.78087
349.547
9.2011
-353.115
-101.184
101.687
-8.11149
351.523
5.99466
-359.569
-103.046
101.328
-5.9796
361.272
-2.58897
-349.446
-97.4924
93.4743
7.90459
348.149
-343.438
8.92629
86.6917
-17.9353
341.045
8.17306
4.7477
4.18592
-92.3962
-87.0285
-1.32646
-21.4393
21.2659
1.64599
86.8823
-26.5789
-3.52909
-0.0592757
26.4507
3.71662
-54.6891
1.20842
-0.24286
-5.13647
54.6579
4.20206
-60.2927
5.68554
-3.34485
4.70835
-6.61545
59.8591
-69.1464
0.889963
-7.17331
41.8023
-8.40446
270.756
2.20488
1.27275
2.05462
-9.84131
-7.01797
-9.78706
-66.7539
-71.1636
-69.6921
-72.2178
5.62115
-11.8583
13.3266
-6.50054
71.6289
-307.631
19.2882
-62.8834
68.4074
-70.9675
306.634
16.7172
15.0255
15.4092
422.954
1.72305
1463.77
1.81033
7.07008
-1.21366
-1.31821
419.865
3.80589
1459.31
3.62032
1.76453
-2.93984
-3.98563
417.199
10.3346
1451.93
0.857672
4.07219
-5.89474
-6.82914
414.881
4.98128
1460.5
7.35523
6.01923
-7.93094
-9.28046
405.326
35.5894
1461.77
4.78872
-1.5021
-12.3034
-16.273
400.689
57.9072
1438.87
-11.5909
0.648798
-22.0813
-20.0842
112.929
75.6642
1412.64
116.041
116.506
106.092
11.134
-47.0722
-27.0192
-23.963
-368.828
-64.8275
47.7478
381.789
32.2383
27.6627
27.8328
29.3145
-23.7173
-0.962845
-6.94718
27.2835
4.34387
36.0537
-55.5428
-275.845
75.0215
-52.0404
272.353
36.7388
-315.976
-85.1156
91.8328
-42.8498
315.37
33.6757
-332.907
-95.8199
98.9071
-37.9922
334.136
107.744
-192.498
1414.09
15.0702
32.9351
52.7672
55.4721
-340.468
-343.272
-352.357
-350.013
-102.111
-112.779
-101.483
-111.976
110.333
108.238
110.309
40.2067
-345.873
107.167
-41.2911
347.535
-217.802
1385.66
73.4593
55.4786
41.2932
49.606
-348.141
-349.095
-351.006
-351.32
-105.207
-107.966
-106.836
-110.129
431.651
1.81168
1489
429.884
6.09801
1489.51
429.126
12.8841
1484.47
427.597
8.70008
1486.92
422.786
40.9723
1485.63
435.251
61.9213
1472.24
123.029
90.4156
1450.08
129.351
112.734
115.92
-354.084
-41.4372
121.201
36.1012
361.248
-84.3189
-27.3623
-31.7073
37.3123
19.4821
86.594
-73.2702
-35.7742
29.6304
0.00123041
72.6726
6.74023
-71.1822
0.725039
-6.68871
28.1616
-2.85654
70.7224
0.612499
-0.355143
-1.0856
-6.72951
-5.76917
-5.55467
471.487
-259.417
1387.54
-106.629
-126.637
-102.867
-114.92
62.4288
71.2744
46.1997
43.3254
-339.499
-330.143
-350.59
-351.554
488.855
-235.742
1410.77
55.7729
40.4311
41.2238
33.9102
477.211
-140.442
1447.67
42.8299
46.2877
32.6838
32.3233
484.54
-120.432
1430.56
38.6703
8.97157
28.6146
30.1955
475.15
-164.066
1460.1
457.588
-176.782
1453.21
42.3641
51.1953
40.0367
30.6247
-218.832
1453.99
438.072
1.80125
1511.14
437.283
7.47588
1512.95
437.374
14.6729
1508.62
437.284
11.6174
1509.79
436.881
42.8918
1508.11
454.91
60.8322
1497.18
485.196
70.9072
1478.7
138.985
182.685
1504.3
-51.2829
-52.6619
-67.497
-76.8626
138.033
133.16
132.632
-47.6994
146.902
37.2582
373.657
-371.133
-357.533
-18.6962
-147.585
147.274
19.318
357.223
-352.26
5.46231
149.781
-12.7559
348.97
7.01469
1.12192
2.52939
-149.864
7.65427
-147.766
-355.192
144.468
-6.01724
347.537
3.0408
5.97181
0.304168
506.324
-102.467
1411.44
15.6026
30.9473
50.7491
88.0185
-139.592
-140.134
-137.384
-137.786
-359.17
-360.395
-363.192
-362.962
493.293
-177.664
1380.86
504.887
-207.912
1433.37
491.882
-129.86
1478.8
487.398
-114.366
1479.07
483.817
-157.709
1488.89
475.215
-168.845
1492.99
-208.662
1484.15
443.57
1.72828
1530.13
443.449
8.1993
1532.36
444.39
15.6695
1528.47
445.81
13.3196
1529.12
448.33
42.4803
1527.23
470.858
57.5579
1514.71
500.438
52.5257
1502.36
538.872
142.594
1514.81
566.64
116.66
1509.86
-28.4089
-11.3027
-58.5179
-40.5053
584.858
72.747
1474.32
-18.2547
-16.1879
-33.7842
-28.8621
575.19
-18.1805
1480.67
12.5916
17.5748
-5.34317
7.09121
-373.075
-369.385
-373.301
-368.973
561.169
-63.8848
1508.08
2.25007
26.119
17.3421
52.8426
541.061
-68.1106
1484.24
506.568
-164.496
1516.27
512.608
-190.779
1483.57
501.07
-119.029
1504.83
496.235
-106.468
1504.68
491.154
-148.257
1513.85
481.955
-158.643
1518.21
-196.636
1510.05
448.345
1.63818
1546.6
448.726
8.49023
1548.85
450.448
15.9666
1545.28
453.082
14.0485
1545.67
457.856
40.4913
1542.78
486.761
53.7704
1526.5
507.861
37.5885
1529.28
542.719
109.894
1536.58
561.92
90.0772
1533.73
579.149
57.5864
1508.43
569.93
-22.7498
1517.57
556.936
-48.5717
1508.48
545.825
-55.1544
1512.38
539.292
-114.431
1544.06
516.438
-101.317
1507.81
505.5
-107.765
1525.36
500.561
-97.689
1525.6
486.064
-101.014
1506.61
485.86
-128.614
1510.66
-183.433
1530.94
452.565
1.49079
1561.11
453.334
8.40478
1563.23
455.696
15.6526
1559.89
459.284
13.9531
1560.13
465.399
37.4244
1556.5
506.427
88.3935
1536.19
510.044
102.849
1551
540.238
83.514
1550.14
555.566
69.1041
1553.59
570.428
45.2588
1533.52
564.806
-18.1793
1543.21
555.881
-36.8387
1532.7
546.776
-43.8635
1535.72
530.418
-99.8509
1564.65
518.828
-88.2602
1529.34
508.781
-96.5922
1544.27
503.974
-88.6837
1544.75
498.838
-92.8406
1554.76
489.028
-118.396
1558.5
-169.277
1548.94
456.333
1.33696
1574.04
457.42
8.02564
1575.96
460.293
14.873
1572.89
464.562
13.296
1573.02
471.292
33.7981
1569.42
481.695
77.8763
1550.88
512.702
86.0571
1569.66
537.816
63.2934
1564.87
550.059
52.604
1570.17
563.106
35.0904
1553.77
559.294
-14.5879
1563.4
544.007
-41.6768
1553.47
546.358
-63.6689
1556.77
530.237
-86.6139
1581.69
520.673
-76.9533
1548.04
511.557
-85.8
1560.58
506.804
-79.4803
1561.11
501.302
-84.1394
1570.42
491.649
-107.612
1573.55
-154.292
1564.42
459.748
1.18478
1585.72
461.09
7.46946
1587.43
464.356
13.7461
1584.65
469.132
12.206
1584.75
476.172
29.8683
1581.54
486.802
67.1823
1566.03
514.677
72.1148
1583.58
535.467
46.7863
1580.57
545.574
39.6018
1583.9
556.863
27.0779
1570.05
554.894
-12.1741
1579.11
548.702
-31.2168
1568.13
546.075
-51.8757
1572.53
530.726
-74.3694
1595.66
522.061
-66.5133
1564.28
513.547
-75.3027
1574.88
508.965
-70.3577
1575.58
503.312
-75.2275
1584.2
493.873
-96.4757
1586.56
-138.658
1577.83
462.858
1.05312
1596.38
464.416
6.76046
1597.89
467.983
12.3621
1595.44
473.091
10.8683
1595.52
480.287
25.8345
1592.92
488.468
40.3156
1581.9
515.766
29.6429
1595.83
534.894
41.313
1597.09
541.873
45.6423
1593.58
552.003
20.6093
1583.79
551.155
-10.2963
1592.22
556.456
-64.3137
1615.59
545.18
-61.8893
1617.64
531.43
-63.5728
1607.67
523.307
-56.6629
1580.27
515.293
-65.1961
1587.7
510.963
-61.3378
1588.52
505.064
-66.0967
1596.6
495.908
-84.9742
1598.25
-122.435
1590
465.733
0.89979
1606.28
467.456
5.92995
1607.57
471.239
10.7903
1605.43
476.586
9.34454
1605.5
483.828
21.835
1603.26
502.45
32.6653
1593.53
515.931
22.4919
1602.96
525.538
30.9257
1608.43
538.916
35.6559
1599.72
548.113
15.5133
1595.6
548.163
-8.67566
1603.5
542.406
-54.1476
1596.91
544.558
-51.5882
1596.88
510.79
-31.9949
1579.42
523.887
-70.0839
1567.21
516.737
-55.336
1598.19
512.746
-52.3417
1600.18
506.651
-56.8128
1607.93
497.836
-73.2691
1608.88
-105.784
1601.18
468.404
0.762087
1615.46
470.26
5.02301
1616.57
474.198
9.12378
1614.73
479.733
7.78288
1614.68
487.156
18.2084
1611.5
503.66
26.1658
1605.28
516.347
16.8538
1611.92
524.556
23.0134
1617.82
536.986
27.2445
1608.8
545.177
11.4804
1607.03
545.871
-7.20295
1613.69
542.013
-44.6222
1607.77
544.06
-42.0635
1609.5
537.506
-25.5723
1621.75
520.925
-47.8678
1613.98
517.945
-43.2948
1597.96
514.353
-43.4574
1610.59
508.154
-47.465
1618.38
499.714
-61.3684
1618.62
-88.754
1611.53
470.912
0.602217
1624.12
472.856
4.06037
1625.01
476.916
7.34382
1623.49
482.675
6.23161
1622.99
488.716
9.95311
1616.4
505.066
9.12679
1616.79
516.739
12.3221
1621.28
524.35
16.7737
1626.06
535.723
20.1698
1618.24
543.161
8.3265
1617.35
544.303
-5.73071
1622.79
549.979
-21.8426
1617.85
543.843
-5.54181
1620.94
537.933
-19.7386
1632.24
526.673
-38.0451
1635.8
519.398
-35.0192
1617.04
515.953
-34.7329
1620.65
509.598
-38.0607
1628.1
501.55
-49.2775
1627.63
-71.4093
1621.17
473.27
0.445165
1632.26
475.282
3.05883
1632.96
479.406
5.52649
1631.75
485.323
4.64304
1631.07
496.947
7.7034
1625.55
506.474
6.47352
1630.75
517.051
8.52156
1630.8
524.743
11.4728
1633.71
534.982
14.3306
1627.34
542.171
5.5705
1626.81
544.151
-4.59638
1631.06
542.693
-15.8335
1627.17
543.952
-3.70636
1631.57
538.528
-14.3728
1641.98
528.468
-29.1271
1645.32
520.977
-26.3264
1627.2
517.565
-26.0112
1630.45
511.112
-28.5935
1637.19
503.438
-37.0923
1636.03
-53.8515
1630.28
475.491
0.286563
1639.99
477.556
2.04953
1640.49
481.709
3.71218
1639.63
487.521
3.06839
1639.17
498.469
4.41887
1636.02
507.265
3.73054
1640.33
517.409
5.267
1639.02
525.163
7.16231
1640.71
534.885
9.12459
1635.91
541.485
3.54324
1635.46
543.745
-3.23658
1638.58
543.09
-10.5298
1635.98
544.575
-2.24505
1641.37
539.513
-9.34787
1651.01
529.722
-20.8149
1653
522.682
-17.6119
1637.06
519.313
-17.3253
1639.78
512.769
-19.0987
1645.84
505.491
-24.8106
1643.96
-36.0573
1638.93
477.601
0.141207
1647.38
479.699
1.01051
1647.67
483.854
1.84039
1647.16
489.522
1.52086
1646.92
498.904
2.06103
1644.94
507.822
1.72515
1647.12
517.811
2.4707
1646.54
526.001
3.53201
1647.22
535.395
4.34503
1643.99
541.928
1.71446
1643.59
544.418
-1.58443
1645.59
543.988
-5.41551
1644.28
545.514
-1.05611
1650.61
540.719
-4.61805
1659.55
531.01
-13.6425
1660.63
524.453
-9.35301
1646.66
521.122
-8.67655
1648.68
514.475
-9.56159
1654.06
507.596
-12.4421
1651.58
-18.0911
1647.27
479.606
1654.38
481.72
1654.43
485.852
1654.25
491.419
1654.18
499.594
1653.63
508.406
1654.23
518.241
1653.64
527.407
1653.12
536.441
1651.44
542.955
1651.07
546.011
1651.92
545.435
1651.79
546.881
1659.13
542.221
1667.23
529.708
1660.83
526.381
1647.79
522.958
1656.5
516.177
1661.06
509.673
1657.87
1654.14
-86.502
-0.554954
25.3191
0.449204
86.4569
-84.5133
-0.137789
-25.2553
25.1946
0.201267
84.5106
-85.6554
-0.539488
-25.2895
25.2945
0.493651
85.6962
-78.9607
-1.08884
-23.584
22.5412
2.01271
79.0797
-77.1585
-24.2603
21.545
2.75847
77.2094
-0.0940984
-69.2653
-19.3857
18.6307
1.06449
69.313
-0.357136
-1.4112
103.798
1.66164
357.296
-357.433
-2.44861
-353.76
-103.484
102.879
3.16521
353.648
-4.79376
-349.129
-101.962
101.011
5.8891
348.986
-13.0129
-350.787
-100.263
101.127
12.4649
350.471
-13.8671
-361.464
-103.058
101.3
15.8579
361.231
-17.6167
-347.404
-97.1669
92.306
22.8341
347.048
-8.21759
-339.581
83.7661
43.2007
339.255
-9.14462
-9.93428
-10.6307
-88.7133
-88.2803
-18.2931
-19.6067
20.6243
16.8659
88.6898
-26.0472
-2.995
3.26546
25.9823
-0.205595
-55.1138
0.916336
0.212558
-2.09619
55.2627
0.818348
-59.7936
0.924951
-3.98984
5.36922
-2.36574
59.855
-273.338
12.7528
-7.84837
46.5668
-52.145
273.473
13.5496
8.35263
8.96054
-10.8703
-8.20665
-11.2471
-71.3986
4.51538
-12.7402
13.6601
-5.68543
71.6487
-306.458
4.3838
-68.5376
72.5612
-21.1001
306.123
5.40017
3.61192
4.01549
423.778
9.37483
1463.7
-2.13391
-2.49899
-1.47365
-2.27193
420.437
19.3831
1458.92
-3.61176
-4.14037
-3.49776
-4.39656
418.376
35.4279
1451.44
-6.57468
-9.52758
-6.91832
-9.86108
416.757
56.1422
1460.5
-12.5194
-14.8548
-12.8305
-14.3173
406.671
83.8228
1462.29
-17.8096
-20.0219
-17.0705
-19.3574
394.032
133.255
1438.59
-26.6612
-32.7679
-26.4286
-34.4735
96.8628
232.361
1408
101.798
96.2865
101.239
-47.9764
-63.5775
-51.3491
-66.9734
-353.328
-95.3649
94.4562
351.166
25.8245
24.3161
25.6439
24.1496
-32.4079
-4.32012
33.0944
3.00107
0.632488
18.947
-58.841
-268.782
74.335
-30.7693
265.111
25.0532
-313.555
-84.6002
91.9708
-30.14
311.271
22.1865
-96.9479
-334.309
100.435
-25.0665
333.702
108.895
-155.677
1390.77
58.8419
55.4205
29.3824
28.2056
-102.744
-112.624
-103.524
-113.171
110.735
108.933
110.641
31.5962
-348.065
108.018
-31.2768
348.623
-79.3998
1385.09
22.2803
24.1689
18.6443
16.0009
-107.619
-110.943
-107.772
-111.295
431.406
9.42571
1489.06
429.729
21.1726
1489.4
428.263
36.9268
1484.43
426.503
57.7097
1487.11
422.14
87.7346
1486.08
421.761
133.962
1471.91
108.176
219.47
1447.73
110.878
107.604
110.344
-88.6356
-362.567
113.224
82.9818
363.172
-87.1672
-33.3019
-31.4183
34.091
30.8097
86.9866
-73.0155
-36.1552
29.8292
6.74092
73.1301
-0.529526
0.695077
-6.85487
-76.9712
78.6232
29.2799
-7.45449
0.606674
1.09771
1.36483
-6.88141
-6.61035
-6.89501
504.598
-124.74
1382.92
-116.346
-122.495
-119.592
-126.098
31.0208
27.7238
23.2151
27.3344
491.42
-119.729
1412.52
32.8418
31.7685
33.4533
33.1002
482.656
-107.856
1447.22
29.4904
27.5521
30.9157
29.118
471.455
-124.093
1451.16
24.6913
35.5927
25.7805
28.6261
471.338
-151.612
1456.15
470.076
-102.891
1463.77
32.5091
19.703
21.8067
19.5744
-76.778
1453.25
437.816
9.12396
1511.26
437.152
21.8
1512.99
436.539
37.394
1508.77
436.086
57.9164
1510.04
436.118
87.2563
1508.56
441.416
128.814
1497.03
467.995
192.848
1478.74
131.904
269.104
1504.76
-79.2484
-85.9124
-76.9173
-85.8685
131.163
131.882
131.427
-86.1101
-374.148
142.19
75.7725
374.199
-39.228
-357.08
-146.413
146.064
39.6184
357.038
-3.64857
-348.155
149.601
11.272
347.956
-1.83968
-4.49645
-2.55545
-148.134
6.01659
-148.46
-352.542
139.996
-27.2579
357.46
9.8739
6.19111
8.72112
482.213
-185.238
1469.99
48.5266
64.9447
39.9414
43.9052
-136.929
-138.938
-137.766
-139.212
510.046
-214.183
1442.47
506.415
-128.585
1445.86
494.596
-97.3073
1480.07
485.96
-116.254
1479.87
483.488
-144.469
1484.22
479.133
-97.8998
1492.36
-73.7496
1483.45
443.324
8.63397
1530.3
443.34
21.6451
1532.5
443.576
36.9271
1528.7
444.598
56.6271
1529.38
447.452
84.0423
1527.59
456.467
120.591
1513.91
481.311
167.667
1502.69
528.516
220.842
1515.87
566.483
190.494
1510.12
-66.4661
-48.3551
-65.8729
-48.0296
584.296
123.45
1473.75
-38.2968
-32.0033
-37.9987
-32.4004
578.379
16.9617
1481.86
-9.91741
4.58132
-10.7574
3.86348
556.341
-30.5567
1474.78
22.9473
34.2811
15.6023
13.0624
511.373
-163.957
1507.92
519.612
-198.006
1491.85
513.912
-115.399
1476.08
503.256
-87.6988
1505.88
494.446
-107.738
1504.97
490.653
-135.621
1508.8
485.508
-91.8052
1517.26
-70.0754
1509.51
448.115
8.0107
1546.83
448.628
20.909
1549.08
449.653
35.6248
1545.55
451.874
54.1218
1545.96
456.764
78.9525
1542.98
467.423
113.882
1522.55
490.359
146.686
1527.33
527.254
183.819
1536.71
558.182
159.302
1534
575.994
105.531
1508.53
571.214
21.7101
1517.6
557.213
-16.9993
1508.93
504.468
-44.9773
1446.15
523.637
-133.595
1460.47
517.658
-102.899
1501.29
507.367
-78.3558
1526.31
498.518
-98.6277
1525.34
484.946
-143.881
1528.44
489.031
-121.72
1536.49
-65.9179
1530.42
452.348
7.34383
1561.34
453.252
19.7769
1563.46
454.924
33.6636
1560.18
458.091
50.7054
1560.38
464.125
72.7256
1556.69
475.614
102.822
1535.76
495.224
124.734
1553.34
525.9
152.444
1550.84
551.978
132.915
1553.9
567.59
89.6331
1533.81
566
23.103
1543.4
556.202
-7.67809
1533.18
546.997
-34.5295
1534.47
525.555
-118.111
1570.6
520.052
-90.8126
1522.76
510.41
-69.4441
1545
501.914
-89.4057
1544.02
497.592
-132.272
1547.48
491.729
-111.886
1554.52
-61.2593
1548.35
456.119
6.65161
1574.25
457.327
18.363
1576.16
459.542
31.2
1573.14
463.41
46.6
1573.26
470.038
65.8254
1569.69
482.017
90.8084
1550.92
499.075
106.385
1570.95
524.703
126.455
1565.23
546.681
110.661
1570.45
560.449
75.5694
1554.06
560.337
23.0934
1563.52
553.829
-1.29474
1553.59
546.48
-26.0873
1555.67
526.707
-103.524
1586.88
521.921
-79.8905
1541.9
512.919
-61.1073
1561.24
504.713
-80.1314
1560.04
499.928
-120.053
1562.98
493.915
-101.599
1569.28
-56.159
1563.74
459.528
5.93034
1585.93
460.988
16.6876
1587.65
463.624
28.3252
1584.89
468.023
42.0069
1584.94
475.055
58.5611
1581.77
487.113
78.8295
1565.95
502.262
90.7033
1584.11
524.231
104.239
1580.81
542.456
92.1882
1584.15
554.381
63.3803
1570.31
555.663
21.6254
1579.3
556.539
-25.2125
1591.17
546.06
-34.6679
1591.59
527.724
-89.456
1599.93
523.145
-69.3419
1558.31
514.576
-53.0731
1575.41
506.819
-70.9174
1574.12
501.861
-107.522
1576.63
495.679
-91.0433
1582.19
-50.7121
1577.09
462.649
5.17352
1596.58
464.304
14.8381
1598.08
467.264
25.1957
1595.61
472.028
37.1017
1595.66
479.3
51.0981
1593.11
491.568
66.9342
1581.53
504.976
77.4032
1595.72
523.833
85.2376
1597.23
539.153
76.7354
1593.71
549.663
52.6706
1583.99
551.645
19.5482
1592.31
560.904
-13.2254
1594.35
545.207
5.30864
1593.36
528.211
-76.2554
1611.47
524.05
-58.9682
1574.06
516.199
-45.4832
1587.96
508.774
-61.761
1586.79
503.675
-94.6111
1588.79
497.264
-80.1905
1593.81
-44.957
1589.16
465.527
4.45375
1606.41
467.345
12.8821
1607.71
470.544
21.8565
1605.56
475.566
31.9817
1605.6
482.913
43.6345
1603.38
493.74
55.9788
1593.66
506.643
64.3518
1603.1
522.622
69.0968
1608.59
536.56
62.6667
1599.85
545.92
43.1886
1595.72
548.37
17.0685
1603.53
545.736
-9.81878
1596.14
544.685
6.54135
1596.7
513.488
-86.3681
1620.73
524.47
-93.0725
1590.34
517.571
-38.2916
1597.9
510.461
-52.7156
1598.25
505.278
-81.501
1600
498.683
-69.1075
1604.4
-38.9386
1600.25
468.209
3.70749
1615.58
470.138
10.8409
1616.68
473.518
18.3691
1614.84
478.706
26.7291
1614.74
485.968
36.3941
1611.48
496.123
45.7102
1605.39
508.282
52.1197
1611.99
522.229
55.0436
1617.92
534.844
49.9274
1608.92
543.161
34.7485
1607.15
545.9
14.3747
1613.65
544.041
-7.29726
1607.11
544.162
6.73822
1609.18
523.331
-71.5621
1627.78
520.273
-81.5053
1605.47
518.637
-41.9593
1603.26
512.036
-43.8493
1608.32
506.758
-68.2128
1610.37
500.051
-57.852
1614.07
-32.7173
1610.5
470.712
2.96539
1624.21
472.734
8.73866
1625.09
476.25
14.789
1623.56
481.534
21.4513
1622.98
488.214
29.8584
1616.25
498.344
35.1236
1617.25
509.847
40.5375
1621.36
522.3
42.527
1626.13
533.739
38.4298
1618.29
541.344
27.0783
1617.42
544.229
11.6343
1622.65
542.888
-5.39169
1617.28
543.873
6.19354
1620.5
521.082
-19.6952
1603.16
524.055
-47.1287
1598.45
519.885
-33.7298
1612.98
513.665
-34.9824
1618.01
508.217
-54.7562
1620.09
501.421
-46.4428
1623.01
-26.3329
1620.07
473.06
2.22889
1632.33
475.158
6.58467
1633.02
478.756
11.141
1631.8
484.144
16.1016
1631.04
491.884
22.5599
1625.1
500.783
25.8115
1631.16
511.38
29.8595
1630.88
522.973
30.9044
1633.73
533.24
28.118
1627.39
540.571
19.7202
1626.83
543.896
8.50352
1630.86
542.438
-3.40859
1626.65
543.984
5.15829
1631.06
538.562
-14.3676
1642.07
525.969
-37.1165
1647.9
521.168
-25.3968
1623.67
515.37
-26.216
1627.48
509.828
-41.2059
1629.18
502.853
-34.9496
1631.51
-19.8403
1629.1
475.292
1.46612
1640.07
477.427
4.40084
1640.54
481.09
7.43071
1639.67
486.491
10.7254
1639.15
494.565
14.7215
1635.79
502.853
17.2945
1640.55
513.001
19.6707
1639.06
523.693
20.2076
1640.71
533.413
18.376
1635.93
540.101
13.0417
1635.45
543.276
5.54534
1638.37
542.655
-2.21661
1635.41
544.601
3.67331
1640.91
539.534
-9.37043
1651.08
527.863
-27.9095
1655.46
522.639
-17.0386
1633.92
517.1
-17.4559
1636.56
511.583
-27.5568
1637.71
504.482
-23.3554
1639.47
-13.2588
1637.75
477.414
0.729359
1647.4
479.577
2.19602
1647.71
483.272
3.71684
1647.18
488.659
5.35286
1646.9
496.141
7.25253
1644.92
504.736
8.6334
1647.19
514.676
9.74128
1646.53
524.822
10.0766
1647.2
534.201
8.99258
1643.99
540.77
6.4818
1643.58
543.775
2.82699
1645.31
543.44
-1.20447
1643.61
545.54
1.94436
1650.24
540.739
-4.61888
1659.6
529.968
-19.854
1663.35
524.237
-8.56043
1643.91
518.951
-8.75064
1645.26
513.278
-13.841
1646.02
506.176
-11.7317
1647.06
-6.66726
1646.13
479.419
1654.41
481.581
1654.47
485.299
1654.25
490.691
1654.14
497.991
1653.58
506.648
1654.2
516.412
1653.62
526.504
1653.11
535.522
1651.42
542.031