/*--------------------------------*- C++ -*----------------------------------*\
  =========                 |
  \\      /  F ield         | OpenFOAM: The Open Source CFD Toolbox
   \\    /   O peration     | Website:  https://openfoam.org
    \\  /    A nd           | Version:  10
     \\/     M anipulation  |
\*---------------------------------------------------------------------------*/
FoamFile
{
    format      ascii;
    class       volVectorField;
    location    "2000";
    object      U;
}
// * * * * * * * * * * * * * * * * * * * * * * * * * * * * * * * * * * * * * //

dimensions      [0 1 -1 0 0 0 0];

internalField   nonuniform List<vector> 
55398
(
(13.3037 0.196792 15.7859)
(13.6741 0.267027 15.7401)
(13.3921 0.0265233 15.6912)
(13.1583 0.39269 15.474)
(12.6726 0.52534 15.1474)
(11.0982 0.617584 14.0021)
(13.7975 0.127648 16.4173)
(13.9258 0.221769 16.3981)
(13.7665 0.294075 16.3801)
(13.6252 0.528213 16.3314)
(13.3604 0.780476 16.2674)
(12.8465 1.26257 16.1722)
(11.8651 2.23602 15.942)
(9.17151 3.84246 14.4898)
(-2.87927 0.208101 10.0388)
(-0.657259 -0.169958 10.9593)
(2.25629 -0.296937 11.6069)
(4.66836 -0.521569 12.6512)
(6.72047 -0.344083 13.3414)
(8.55646 -0.726262 13.9824)
(14.2174 0.129195 16.9169)
(14.2227 0.234548 16.9077)
(14.1361 0.428516 16.8806)
(13.9992 0.674591 16.8406)
(13.7788 1.05112 16.7864)
(13.4383 1.75133 16.6808)
(12.9527 3.22905 16.4964)
(12.6994 5.32217 16.0266)
(-0.321661 0.317095 7.15608)
(9.24111 -1.48695 12.676)
(11.6364 -1.68667 14.5358)
(13.0004 -1.3573 15.2376)
(13.6292 -1.24548 15.5428)
(14.3058 -1.00895 15.8473)
(14.5091 -0.919544 16.0679)
(14.4693 0.114176 17.2246)
(14.4712 0.257598 17.2136)
(14.4131 0.454882 17.192)
(14.3211 0.728258 17.1591)
(14.2072 1.13311 17.1149)
(14.0343 1.83442 17.0222)
(14.1068 3.1279 16.874)
(14.3145 4.80622 16.6206)
(17.4783 7.04638 16.036)
(18.2554 2.331 14.5322)
(14.8279 -1.65271 14.5787)
(16.109 -1.60589 15.7741)
(16.5261 -1.82043 16.2663)
(16.1228 -1.6239 16.5456)
(15.8914 -1.3936 16.6239)
(15.7787 -1.08102 16.7032)
(15.756 -1.04334 16.7671)
(15.6965 -0.921255 16.8497)
(14.6786 0.109309 17.4799)
(14.6841 0.268874 17.4698)
(14.6539 0.476572 17.4515)
(14.6112 0.758519 17.4244)
(14.5797 1.16763 17.3847)
(14.5902 1.80067 17.3153)
(14.8445 2.89167 17.1898)
(16.1651 4.06326 17.0158)
(18.1106 4.44505 16.707)
(19.6504 2.49711 16.4396)
(20.7118 1.11901 16.2681)
(19.1758 -1.63815 16.3215)
(17.9853 -1.54253 16.6236)
(17.4615 -1.53377 16.6909)
(17.085 -1.62873 16.8332)
(16.5905 -1.47175 16.9741)
(16.3131 -1.29524 17.0173)
(16.1508 -1.08888 17.0869)
(16.1061 -1.02673 17.121)
(15.9805 -0.902848 17.1857)
(14.8596 0.10215 17.6989)
(14.87 0.272315 17.6901)
(14.8651 0.482258 17.6747)
(14.8641 0.760885 17.6513)
(14.906 1.14905 17.6192)
(15.0227 1.71598 17.5563)
(15.4283 2.51725 17.4783)
(16.5996 3.52007 17.3211)
(18.4669 2.92909 17.1742)
(19.5525 1.98146 17.0816)
(19.962 0.299121 17.0092)
(19.1206 -0.847803 17.0488)
(18.1942 -1.26748 17.1201)
(17.7726 -1.34462 17.1581)
(17.3804 -1.4199 17.2372)
(16.9351 -1.32615 17.319)
(16.661 -1.21244 17.3433)
(16.4259 -1.02093 17.399)
(16.3453 -0.964292 17.4276)
(16.1594 -0.869397 17.476)
(15.0188 0.096645 17.8907)
(15.0343 0.269685 17.8831)
(15.051 0.476325 17.87)
(15.0882 0.743139 17.8511)
(15.18 1.10122 17.8238)
(15.3841 1.58847 17.7733)
(15.8097 2.20738 17.711)
(16.8562 2.84133 17.6171)
(18.2758 2.45076 17.5045)
(19.2191 1.58149 17.4318)
(19.5065 0.315441 17.4177)
(18.9922 -0.757959 17.4168)
(18.3579 -1.08822 17.452)
(17.9042 -1.19712 17.4835)
(17.5203 -1.25007 17.5343)
(17.1021 -1.18825 17.5874)
(16.8316 -1.1017 17.6078)
(16.5748 -0.952271 17.6551)
(16.4832 -0.908709 17.6784)
(16.2628 -0.828455 17.717)
(15.1608 0.0903853 18.0613)
(15.1814 0.260827 18.0549)
(15.2166 0.459082 18.0437)
(15.2843 0.708533 18.0284)
(15.4155 1.03009 18.0062)
(15.6673 1.43704 17.9692)
(16.1131 1.90768 17.9191)
(17.0002 2.35613 17.8485)
(18.1439 2.05624 17.7763)
(18.925 1.36917 17.7209)
(19.2166 0.303642 17.6984)
(18.89 -0.483483 17.6954)
(18.3865 -0.832299 17.7184)
(17.9564 -0.982824 17.7552)
(17.6042 -1.0605 17.7905)
(17.2201 -1.04424 17.8279)
(16.9604 -0.993934 17.8444)
(16.6959 -0.878264 17.8808)
(16.5929 -0.839674 17.8988)
(16.3474 -0.772039 17.9298)
(15.2892 0.0840118 18.2155)
(15.3147 0.247216 18.2105)
(15.3653 0.433236 18.2012)
(15.4565 0.661924 18.1878)
(15.6159 0.944283 18.1697)
(15.8951 1.28448 18.1408)
(16.34 1.64205 18.1029)
(17.0954 1.9539 18.0491)
(18.0245 1.71586 17.9989)
(18.6912 1.14336 17.9619)
(18.9637 0.339895 17.9468)
(18.7446 -0.364446 17.9383)
(18.3503 -0.712946 17.9529)
(17.9807 -0.866722 17.9828)
(17.6639 -0.93977 18.0075)
(17.3187 -0.930922 18.0331)
(17.0677 -0.892146 18.0456)
(16.7949 -0.799383 18.0747)
(16.6826 -0.768902 18.0901)
(16.4168 -0.715519 18.1141)
(15.4061 0.0767946 18.3556)
(15.4359 0.229449 18.3519)
(15.4992 0.400514 18.3441)
(15.6086 0.606121 18.3325)
(15.7875 0.850751 18.3174)
(16.0773 1.1338 18.2944)
(16.5095 1.40562 18.265)
(17.1638 1.6176 18.2248)
(17.9384 1.42689 18.1875)
(18.5011 0.970054 18.1613)
(18.7571 0.320282 18.1497)
(18.6282 -0.250215 18.1391)
(18.3285 -0.553439 18.148)
(17.9984 -0.708957 18.1724)
(17.7057 -0.785736 18.1929)
(17.3825 -0.798107 18.2118)
(17.144 -0.779657 18.2214)
(16.8737 -0.7139 18.2436)
(16.7566 -0.690714 18.2557)
(16.4746 -0.647789 18.2746)
(15.5133 0.0694005 18.4836)
(15.5465 0.208352 18.4806)
(15.6197 0.362275 18.4741)
(15.7428 0.543285 18.4645)
(15.9351 0.752333 18.4522)
(16.2287 0.9855 18.4333)
(16.6426 1.19504 18.4105)
(17.2173 1.3354 18.3824)
(17.8685 1.18045 18.3549)
(18.3576 0.806881 18.3351)
(18.5917 0.298854 18.3249)
(18.52 -0.170924 18.3169)
(18.2852 -0.450368 18.3213)
(18.0019 -0.602728 18.3409)
(17.7371 -0.67977 18.3566)
(17.4403 -0.697356 18.3705)
(17.2126 -0.686523 18.3772)
(16.9439 -0.634652 18.395)
(16.8225 -0.615937 18.4049)
(16.529 -0.580944 18.4205)
(15.6124 0.0613345 18.6017)
(15.6486 0.184689 18.5993)
(15.7295 0.319962 18.5941)
(15.8626 0.476004 18.5863)
(16.0634 0.6515 18.5764)
(16.3548 0.84101 18.5614)
(16.7495 1.00188 18.5428)
(17.2609 1.09491 18.5232)
(17.8189 0.968412 18.5038)
(18.2473 0.67004 18.4879)
(18.4628 0.265441 18.4795)
(18.4321 -0.117973 18.4729)
(18.2538 -0.353987 18.4752)
(18.0094 -0.491164 18.4896)
(17.7659 -0.561455 18.5024)
(17.4894 -0.58289 18.5136)
(17.2698 -0.581126 18.5185)
(17.0043 -0.545787 18.5322)
(16.8799 -0.53278 18.5399)
(16.5777 -0.505859 18.5525)
(15.7046 0.052736 18.7115)
(15.7431 0.159041 18.7095)
(15.8298 0.274592 18.7054)
(15.9701 0.40569 18.6992)
(16.1759 0.549738 18.6914)
(16.4631 0.700473 18.6798)
(16.8391 0.822078 18.6656)
(17.2996 0.884091 18.6515)
(17.7882 0.781237 18.6373)
(18.1689 0.544847 18.6257)
(18.3675 0.228961 18.619)
(18.3639 -0.0795699 18.6139)
(18.2265 -0.276698 18.6151)
(18.0138 -0.400044 18.6241)
(17.7895 -0.46459 18.6353)
(17.5312 -0.488002 18.6438)
(17.3212 -0.490451 18.6473)
(17.06 -0.464679 18.6577)
(16.9335 -0.454705 18.6637)
(16.6253 -0.433181 18.6737)
(15.7907 0.0437099 18.814)
(15.831 0.13188 18.8125)
(15.922 0.227006 18.8092)
(16.0672 0.333401 18.8045)
(16.2751 0.448736 18.7981)
(16.5577 0.565743 18.7895)
(16.9168 0.655784 18.7792)
(17.3377 0.697966 18.769)
(17.7734 0.616212 18.7586)
(18.121 0.431461 18.7503)
(18.3031 0.188152 18.7448)
(18.3168 -0.0547268 18.7423)
(18.2095 -0.212105 18.7429)
(18.0244 -0.312643 18.7488)
(17.8163 -0.367924 18.7567)
(17.5738 -0.390027 18.763)
(17.3713 -0.394801 18.7656)
(17.1136 -0.37732 18.7734)
(16.9858 -0.370408 18.7779)
(16.6729 -0.354391 18.7856)
(15.8714 0.0343252 18.9101)
(15.9131 0.103569 18.909)
(16.0073 0.177846 18.9066)
(16.1557 0.260039 18.9032)
(16.3647 0.348151 18.8981)
(16.6417 0.434694 18.8922)
(16.9889 0.499383 18.885)
(17.374 0.527104 18.878)
(17.7946 0.46236 18.8704)
(18.0742 0.330508 18.8652)
(18.3064 0.151255 18.8611)
(18.2961 -0.0364516 18.8602)
(18.2076 -0.156927 18.8602)
(18.0407 -0.236264 18.8634)
(17.8467 -0.280921 18.8689)
(17.6172 -0.300443 18.8733)
(17.4207 -0.306268 18.8752)
(17.1663 -0.294622 18.8808)
(17.0379 -0.289772 18.8841)
(16.7227 -0.27797 18.8898)
(15.9474 0.0246828 19.0006)
(15.9901 0.0744889 18.9998)
(16.0863 0.127669 18.9982)
(16.2369 0.186082 18.996)
(16.4468 0.247879 18.9924)
(16.7195 0.307829 18.9886)
(17.0548 0.351849 18.9838)
(17.422 0.366486 18.9793)
(17.8018 0.325305 18.9744)
(18.0865 0.228151 18.9707)
(18.2671 0.100215 18.9681)
(18.2965 -0.0181149 18.9678)
(18.2243 -0.105737 18.9677)
(18.0708 -0.163936 18.9697)
(17.8869 -0.19702 18.9734)
(17.6663 -0.211921 18.9762)
(17.4743 -0.21689 18.9775)
(17.2226 -0.209345 18.9814)
(17.094 -0.206186 18.9836)
(16.777 -0.198156 18.9876)
(16.0191 0.0148497 19.0861)
(16.0625 0.0448558 19.0856)
(16.1601 0.0767992 19.0847)
(16.3119 0.111744 19.0834)
(16.522 0.148147 19.0815)
(16.7919 0.183773 19.0792)
(17.1191 0.208645 19.0766)
(17.4738 0.218793 19.0741)
(17.8308 0.191692 19.0714)
(18.1143 0.137608 19.0693)
(18.2853 0.0594684 19.0677)
(18.3134 -0.00965229 19.0676)
(18.2524 -0.0612035 19.0676)
(18.1087 -0.0961434 19.069)
(17.9323 -0.11661 19.0718)
(17.7184 -0.126273 19.0732)
(17.5292 -0.130002 19.074)
(17.2794 -0.125967 19.0767)
(17.1506 -0.124303 19.0781)
(16.8331 -0.119699 19.0809)
(16.087 0.00493835 19.1668)
(16.1305 0.0149399 19.1663)
(16.2286 0.0255835 19.1657)
(16.3809 0.0372076 19.1649)
(16.591 0.0491983 19.164)
(16.8589 0.0607875 19.163)
(17.184 0.0683271 19.1619)
(17.5261 0.0725055 19.1609)
(17.8958 0.0617411 19.1599)
(18.1389 0.044801 19.1591)
(18.3465 0.0244208 19.1585)
(18.3461 -0.00802932 19.1582)
(18.2968 -0.0217778 19.158)
(18.158 -0.0323894 19.158)
(17.9846 -0.0389902 19.1576)
(17.7733 -0.0423867 19.1571)
(17.5853 -0.0435727 19.157)
(17.3352 -0.0420215 19.1567)
(17.2059 -0.041339 19.1565)
(16.8873 -0.0397087 19.1564)
(13.3083 0.18947 15.7935)
(13.6856 0.264012 15.7789)
(13.4258 0.0970833 15.751)
(13.2764 0.422937 15.6612)
(12.5391 0.468145 15.0036)
(11.63 0.690977 14.6525)
(13.8085 0.126146 16.4311)
(13.9405 0.220245 16.4255)
(13.7848 0.298974 16.4041)
(13.6437 0.533 16.3543)
(13.3726 0.782252 16.2791)
(12.8623 1.27561 16.1909)
(11.8747 2.26942 15.926)
(8.36333 3.74514 13.8272)
(-2.6436 0.364933 10.4862)
(-0.362321 -0.267957 11.2963)
(2.58694 -0.430056 11.7599)
(4.803 -0.422853 12.5393)
(6.59251 -0.389029 13.2232)
(8.96074 -0.675514 14.0939)
(14.2219 0.128662 16.9237)
(14.2268 0.234196 16.9169)
(14.1451 0.428912 16.8922)
(14.0137 0.677053 16.854)
(13.793 1.05685 16.8022)
(13.4737 1.75323 16.6923)
(13.0902 3.21963 16.5126)
(12.6 5.42175 16.0227)
(0.0507729 0.281822 7.03677)
(9.34726 -1.37746 12.4692)
(11.9797 -1.71434 14.5311)
(13.2399 -1.37953 15.3565)
(14.3178 -1.19866 15.831)
(14.3344 -1.0165 15.8261)
(14.7564 -0.903507 16.1499)
(14.4714 0.114079 17.2283)
(14.4757 0.258309 17.2215)
(14.4199 0.456095 17.2006)
(14.3326 0.730257 17.1681)
(14.2198 1.13489 17.1257)
(14.0642 1.83452 17.029)
(14.1949 3.09417 16.8898)
(14.3331 4.77686 16.6347)
(17.4819 7.27856 15.8826)
(18.2863 2.29105 14.775)
(14.4165 -1.60505 14.2222)
(16.6087 -1.68068 16.0686)
(16.5524 -1.7873 16.2915)
(16.1601 -1.63092 16.5531)
(15.8964 -1.39895 16.6326)
(15.8006 -1.06501 16.724)
(15.7826 -1.0406 16.7896)
(15.7366 -0.909559 16.8767)
(14.6802 0.109388 17.4828)
(14.6876 0.269392 17.4761)
(14.6594 0.477533 17.4582)
(14.6208 0.759813 17.4312)
(14.5894 1.16887 17.3932)
(14.6152 1.79581 17.3186)
(14.8887 2.86502 17.2088)
(16.182 3.9899 17.0491)
(18.028 4.38691 16.7931)
(19.6075 2.51701 16.4998)
(20.6799 0.580464 16.333)
(19.2297 -1.66581 16.3371)
(17.9383 -1.56261 16.6723)
(17.4813 -1.47477 16.7198)
(17.1215 -1.60927 16.8559)
(16.6205 -1.47651 16.985)
(16.3184 -1.29122 17.0251)
(16.1538 -1.079 17.0951)
(16.1168 -1.02131 17.1338)
(15.9999 -0.895892 17.2047)
(14.861 0.102203 17.7012)
(14.8728 0.272718 17.6952)
(14.8695 0.482708 17.68)
(14.8719 0.7612 17.6565)
(14.9137 1.14871 17.6257)
(15.0412 1.71053 17.5597)
(15.4566 2.48565 17.4944)
(16.6052 3.47974 17.3449)
(18.4391 2.88861 17.2099)
(19.532 1.981 17.1009)
(19.8688 0.156083 17.0916)
(19.1379 -0.849124 17.0741)
(18.1686 -1.28146 17.1178)
(17.7614 -1.33082 17.1584)
(17.3896 -1.40532 17.2505)
(16.9457 -1.32131 17.3301)
(16.6646 -1.20837 17.3506)
(16.4296 -1.01614 17.4055)
(16.3523 -0.960477 17.4369)
(16.1699 -0.864862 17.4911)
(15.0199 0.0966981 17.8926)
(15.0367 0.269958 17.8874)
(15.0546 0.476504 17.8742)
(15.0941 0.74266 17.8548)
(15.1856 1.10056 17.8281)
(15.3955 1.58114 17.7762)
(15.8279 2.18415 17.7224)
(16.8551 2.80778 17.6368)
(18.2564 2.43641 17.5338)
(19.2024 1.57314 17.4539)
(19.4998 0.301676 17.4187)
(18.9897 -0.750912 17.4243)
(18.3562 -1.09011 17.4517)
(17.899 -1.19028 17.4869)
(17.5263 -1.24263 17.5407)
(17.1084 -1.18637 17.5949)
(16.8335 -1.0991 17.6131)
(16.5748 -0.949008 17.658)
(16.4863 -0.905375 17.6839)
(16.2697 -0.823814 17.7292)
(15.1618 0.090452 18.0628)
(15.1834 0.261052 18.0583)
(15.2195 0.459135 18.0471)
(15.2888 0.708089 18.0311)
(15.4192 1.02864 18.0081)
(15.6741 1.43643 17.9701)
(16.1183 1.89217 17.9272)
(16.9967 2.33334 17.8633)
(18.1314 2.04169 17.7963)
(18.9125 1.36522 17.7371)
(19.2037 0.301672 17.7119)
(18.8888 -0.479205 17.7029)
(18.3839 -0.836966 17.7188)
(17.9547 -0.983115 17.7562)
(17.6045 -1.05858 17.7924)
(17.2248 -1.04064 17.8336)
(16.9627 -0.990088 17.8488)
(16.6957 -0.876558 17.8813)
(16.5942 -0.837597 17.9019)
(16.3519 -0.768261 17.9392)
(15.2897 0.0839053 18.2163)
(15.3158 0.247458 18.2121)
(15.3672 0.433364 18.2028)
(15.4597 0.661445 18.1894)
(15.6189 0.943091 18.171)
(15.8967 1.28265 18.1418)
(16.3406 1.63699 18.1058)
(17.093 1.93727 18.0594)
(18.0162 1.70397 18.0137)
(18.6829 1.13791 17.9731)
(18.9546 0.337581 17.9576)
(18.7431 -0.357595 17.9463)
(18.349 -0.712195 17.9559)
(17.9792 -0.866156 17.9836)
(17.6632 -0.937273 18.0095)
(17.3202 -0.928012 18.0376)
(17.0694 -0.889592 18.049)
(16.7955 -0.798496 18.0747)
(16.6835 -0.767219 18.092)
(16.4203 -0.711411 18.1215)
(15.4064 0.0768964 18.3558)
(15.4363 0.229503 18.3523)
(15.5002 0.400411 18.3447)
(15.6108 0.605324 18.3334)
(15.79 0.849441 18.3184)
(16.0784 1.13226 18.2954)
(16.5098 1.40251 18.2671)
(17.1619 1.60647 18.2326)
(17.9321 1.41777 18.1984)
(18.4955 0.965622 18.1695)
(18.7508 0.316643 18.158)
(18.6248 -0.247538 18.1451)
(18.3276 -0.552751 18.1509)
(17.9975 -0.70932 18.1727)
(17.7052 -0.785525 18.1932)
(17.3842 -0.795809 18.215)
(17.1451 -0.777276 18.2241)
(16.8738 -0.712983 18.2437)
(16.7572 -0.689378 18.2572)
(16.4775 -0.644219 18.2806)
(15.5135 0.0694322 18.4838)
(15.5469 0.208351 18.4809)
(15.6205 0.362092 18.4746)
(15.7446 0.542473 18.4653)
(15.937 0.751035 18.4531)
(16.2288 0.982701 18.4347)
(16.6433 1.1906 18.4129)
(17.2169 1.32754 18.3875)
(17.8638 1.17535 18.3617)
(18.3547 0.803196 18.341)
(18.5879 0.295221 18.3316)
(18.5165 -0.168111 18.3233)
(18.2837 -0.448751 18.3254)
(18.0011 -0.602513 18.3413)
(17.7365 -0.679382 18.3569)
(17.4417 -0.695531 18.373)
(17.2134 -0.684626 18.3792)
(16.9441 -0.634099 18.3949)
(16.8229 -0.614626 18.4059)
(16.5312 -0.577508 18.4252)
(15.6127 0.0613521 18.6019)
(15.6489 0.184658 18.5995)
(15.7301 0.319755 18.5944)
(15.864 0.47526 18.587)
(16.0649 0.650306 18.5772)
(16.3558 0.838942 18.5628)
(16.75 0.996876 18.5461)
(17.2603 1.08886 18.527)
(17.8171 0.965018 18.5075)
(18.2458 0.667095 18.4921)
(18.4603 0.263183 18.4844)
(18.428 -0.11586 18.481)
(18.2524 -0.351754 18.4803)
(18.0088 -0.491855 18.4892)
(17.7653 -0.561923 18.502)
(17.4903 -0.581901 18.5149)
(17.2706 -0.579456 18.5199)
(17.0043 -0.545071 18.5321)
(16.8802 -0.531615 18.5408)
(16.5796 -0.502963 18.5562)
(15.7048 0.052757 18.7116)
(15.7434 0.159006 18.7098)
(15.8303 0.274392 18.7057)
(15.9712 0.405009 18.6998)
(16.177 0.54872 18.6922)
(16.4639 0.698572 18.681)
(16.8394 0.81825 18.6684)
(17.2992 0.879843 18.6545)
(17.7873 0.778524 18.6401)
(18.1681 0.542637 18.6288)
(18.3659 0.227427 18.6226)
(18.361 -0.0781139 18.6198)
(18.2257 -0.274679 18.619)
(18.0136 -0.400816 18.623)
(17.7894 -0.465129 18.6337)
(17.5315 -0.487549 18.6444)
(17.3217 -0.489236 18.6484)
(17.06 -0.464136 18.6577)
(16.9338 -0.453677 18.6643)
(16.6269 -0.430545 18.6766)
(15.7908 0.043719 18.8141)
(15.8312 0.131843 18.8127)
(15.9224 0.226834 18.8095)
(16.0681 0.332833 18.8051)
(16.2758 0.447549 18.7991)
(16.5582 0.56385 18.7909)
(16.917 0.652775 18.7815)
(17.3374 0.694858 18.7713)
(17.773 0.613991 18.7606)
(18.1207 0.429625 18.7525)
(18.3023 0.187225 18.7475)
(18.3153 -0.0539023 18.7456)
(18.2093 -0.210866 18.7446)
(18.0246 -0.313271 18.7481)
(17.816 -0.368888 18.7557)
(17.5739 -0.389761 18.7634)
(17.3715 -0.393772 18.7664)
(17.1136 -0.376823 18.7733)
(16.986 -0.369571 18.7784)
(16.6742 -0.352273 18.7878)
(15.8715 0.034333 18.9102)
(15.9133 0.103543 18.9091)
(16.0075 0.177707 18.9068)
(16.1563 0.259587 18.9037)
(16.3654 0.34706 18.8989)
(16.642 0.432953 18.8936)
(16.989 0.497158 18.8868)
(17.3737 0.524898 18.8797)
(17.7947 0.460776 18.8718)
(18.0737 0.329333 18.8667)
(18.3062 0.150546 18.863)
(18.2958 -0.0357668 18.8617)
(18.2078 -0.156497 18.8605)
(18.0408 -0.236535 18.8633)
(17.8465 -0.281161 18.869)
(17.6173 -0.300159 18.8738)
(17.4208 -0.305503 18.8758)
(17.1664 -0.294301 18.8808)
(17.0381 -0.289135 18.8844)
(16.7238 -0.276246 18.8914)
(15.9474 0.0246873 19.0006)
(15.9902 0.0744718 18.9999)
(16.0865 0.127572 18.9984)
(16.2373 0.185761 18.9963)
(16.4471 0.247112 18.993)
(16.7198 0.306678 18.9895)
(17.0548 0.350371 18.985)
(17.422 0.365049 18.9804)
(17.8017 0.324288 18.9753)
(18.0869 0.227228 18.9716)
(18.2665 0.0997648 18.9692)
(18.2964 -0.0177508 18.9686)
(18.2245 -0.105476 18.9679)
(18.071 -0.16402 18.9697)
(17.8869 -0.197054 18.9735)
(17.6664 -0.211646 18.9766)
(17.4744 -0.216324 18.9779)
(17.2226 -0.209128 18.9814)
(17.0941 -0.205711 18.9839)
(16.7778 -0.196891 18.9887)
(16.0192 0.0148526 19.0861)
(16.0625 0.044848 19.0857)
(16.1602 0.0767478 19.0848)
(16.3122 0.111562 19.0836)
(16.5222 0.147811 19.0819)
(16.792 0.183099 19.0798)
(17.1191 0.207773 19.0773)
(17.4738 0.217968 19.0747)
(17.831 0.191039 19.0719)
(18.1144 0.137205 19.0698)
(18.2853 0.059316 19.0683)
(18.3135 -0.00952963 19.0681)
(18.2526 -0.0611083 19.0677)
(18.1089 -0.0962158 19.0689)
(17.9322 -0.116581 19.0719)
(17.7184 -0.126086 19.0737)
(17.5293 -0.129687 19.0743)
(17.2794 -0.125919 19.0767)
(17.1508 -0.124063 19.0783)
(16.8336 -0.118947 19.0816)
(16.087 0.00494122 19.1668)
(16.1305 0.0149391 19.1663)
(16.2286 0.0255678 19.1657)
(16.381 0.0371503 19.165)
(16.5911 0.0491108 19.1641)
(16.8589 0.0606095 19.1631)
(17.1841 0.0681007 19.1621)
(17.5261 0.0722906 19.161)
(17.8959 0.0615742 19.16)
(18.1388 0.0446667 19.1592)
(18.3466 0.0243785 19.1586)
(18.3461 -0.00801322 19.1582)
(18.2969 -0.0217674 19.158)
(18.1581 -0.0324054 19.1578)
(17.9843 -0.0389856 19.1576)
(17.7732 -0.0423275 19.1572)
(17.5853 -0.0435237 19.157)
(17.3353 -0.0420559 19.1567)
(17.2059 -0.0412898 19.1564)
(16.8875 -0.0394549 19.1563)
(13.3051 0.182836 15.7939)
(13.681 0.26985 15.7888)
(13.4256 0.102394 15.7637)
(13.3135 0.418818 15.7232)
(12.7031 0.53853 15.2275)
(11.7973 0.745365 14.83)
(13.8092 0.126306 16.4328)
(13.9396 0.221762 16.4252)
(13.7865 0.301163 16.4075)
(13.6485 0.534925 16.3663)
(13.3794 0.788572 16.2939)
(12.8669 1.2791 16.2144)
(11.949 2.31335 16.0039)
(9.09241 4.06441 14.6085)
(-2.41595 0.301959 10.6764)
(-0.252781 -0.275394 11.5243)
(2.87731 -0.428141 11.9267)
(5.72942 -0.532587 12.789)
(6.94879 -0.403389 13.3358)
(9.44267 -0.730076 14.2498)
(14.2218 0.12894 16.9242)
(14.2263 0.234872 16.9169)
(14.1455 0.429817 16.8954)
(14.0149 0.677514 16.8585)
(13.7938 1.0581 16.8078)
(13.4785 1.7569 16.708)
(13.1077 3.21342 16.5556)
(12.8444 5.2853 16.1581)
(1.33025 -0.100133 8.50483)
(9.30166 -1.28673 12.2967)
(11.9333 -1.69736 14.392)
(13.3021 -1.40863 15.4214)
(14.5283 -1.19507 15.9773)
(14.4573 -1.02217 15.9205)
(14.8005 -0.903737 16.1946)
(14.4715 0.114034 17.2291)
(14.4754 0.258566 17.2221)
(14.4205 0.456789 17.2038)
(14.3337 0.730988 17.1731)
(14.2205 1.13592 17.1322)
(14.0686 1.834 17.0425)
(14.2013 3.08967 16.9188)
(14.3847 4.73452 16.687)
(17.318 7.11684 15.8792)
(18.6587 2.45407 14.9595)
(14.6768 -1.55685 14.5863)
(16.6355 -1.68148 16.2022)
(16.5384 -1.77684 16.3016)
(16.1629 -1.63533 16.5435)
(15.9083 -1.3998 16.6499)
(15.8217 -1.06233 16.7751)
(15.8001 -1.03671 16.8213)
(15.7511 -0.906461 16.9078)
(14.6803 0.109381 17.4835)
(14.6875 0.269476 17.477)
(14.6599 0.477787 17.4609)
(14.6219 0.760143 17.4354)
(14.59 1.16922 17.3989)
(14.6186 1.79484 17.3288)
(14.8919 2.86479 17.2275)
(16.1798 3.98459 17.06)
(18.0189 4.4016 16.7998)
(19.6058 2.51872 16.5054)
(20.6645 0.541816 16.3398)
(19.2472 -1.6117 16.3657)
(17.9327 -1.55853 16.7124)
(17.4867 -1.45312 16.8005)
(17.1302 -1.59238 16.8735)
(16.638 -1.48357 16.9888)
(16.3294 -1.28948 17.041)
(16.1637 -1.0734 17.1208)
(16.1244 -1.01723 17.1545)
(16.0052 -0.894719 17.2204)
(14.861 0.102191 17.7018)
(14.8728 0.272781 17.6962)
(14.87 0.482859 17.6824)
(14.8728 0.76138 17.6602)
(14.9143 1.14856 17.6304)
(15.0437 1.70972 17.5677)
(15.4573 2.48517 17.5056)
(16.6046 3.47634 17.3527)
(18.4401 2.89676 17.2044)
(19.5321 1.97877 17.0972)
(19.8553 0.159817 17.067)
(19.1636 -0.84115 17.0814)
(18.1711 -1.28246 17.1409)
(17.7566 -1.32726 17.1966)
(17.3911 -1.40184 17.2591)
(16.9496 -1.32213 17.3334)
(16.6692 -1.20411 17.3634)
(16.4365 -1.01065 17.4232)
(16.3595 -0.957877 17.4512)
(16.1741 -0.863314 17.5033)
(15.0199 0.0966751 17.8931)
(15.0367 0.269977 17.8882)
(15.055 0.476537 17.8763)
(15.0949 0.742737 17.8578)
(15.1862 1.10012 17.8319)
(15.3966 1.57965 17.7822)
(15.8276 2.18389 17.7276)
(16.8552 2.80813 17.6384)
(18.2553 2.43925 17.5265)
(19.2007 1.57691 17.4507)
(19.4984 0.292346 17.4107)
(18.9912 -0.75144 17.4208)
(18.3551 -1.08727 17.455)
(17.9004 -1.18001 17.4985)
(17.5282 -1.23902 17.5459)
(17.1119 -1.18794 17.598)
(16.8364 -1.0962 17.6231)
(16.5794 -0.944346 17.6718)
(16.4912 -0.901946 17.6971)
(16.2728 -0.822017 17.7393)
(15.1618 0.0904167 18.0633)
(15.1834 0.260979 18.0591)
(15.2199 0.459032 18.0488)
(15.2894 0.708093 18.0334)
(15.4195 1.02792 18.0111)
(15.6736 1.43605 17.9716)
(16.1182 1.89243 17.9288)
(16.996 2.33354 17.8632)
(18.1306 2.04352 17.7919)
(18.9129 1.36723 17.7334)
(19.2033 0.304473 17.7094)
(18.8903 -0.475582 17.7055)
(18.382 -0.841614 17.7119)
(17.954 -0.982975 17.753)
(17.6051 -1.05717 17.7948)
(17.2269 -1.04017 17.8359)
(16.9655 -0.985425 17.8569)
(16.7001 -0.871124 17.8924)
(16.5994 -0.834014 17.9129)
(16.354 -0.76726 17.9469)
(15.2897 0.0838462 18.2166)
(15.3158 0.247338 18.2128)
(15.3675 0.433216 18.2041)
(15.4602 0.661319 18.1911)
(15.619 0.942932 18.1729)
(15.8966 1.28323 18.1427)
(16.3403 1.63632 18.1064)
(17.0928 1.93764 18.0591)
(18.0161 1.70513 18.0105)
(18.683 1.13966 17.9706)
(18.9545 0.336443 17.9547)
(18.7439 -0.354953 17.9471)
(18.349 -0.713396 17.9524)
(17.9783 -0.865514 17.982)
(17.6626 -0.935961 18.0114)
(17.3205 -0.92799 18.0397)
(17.0712 -0.886478 18.0553)
(16.7993 -0.793709 18.0831)
(16.6877 -0.763328 18.1001)
(16.4218 -0.709916 18.1273)
(15.4064 0.076892 18.3561)
(15.4363 0.229439 18.3527)
(15.5004 0.400281 18.3455)
(15.6111 0.605161 18.3347)
(15.7902 0.849374 18.3198)
(16.0784 1.13243 18.2962)
(16.5097 1.4024 18.2678)
(17.1619 1.607 18.2324)
(17.9318 1.41852 18.1967)
(18.4958 0.966669 18.1675)
(18.7508 0.315434 18.1558)
(18.6237 -0.243805 18.1488)
(18.3267 -0.553912 18.15)
(17.997 -0.709735 18.1722)
(17.7047 -0.785571 18.1944)
(17.3849 -0.795722 18.2162)
(17.1465 -0.774336 18.2291)
(16.8762 -0.708531 18.2506)
(16.7602 -0.685869 18.2636)
(16.4788 -0.643033 18.2849)
(15.5136 0.0694208 18.4839)
(15.5469 0.208365 18.4812)
(15.6206 0.362054 18.4752)
(15.7448 0.542411 18.4663)
(15.9372 0.751045 18.4541)
(16.2292 0.982539 18.436)
(16.6429 1.19037 18.4135)
(17.2169 1.32781 18.3871)
(17.8637 1.1757 18.3609)
(18.3549 0.803843 18.3398)
(18.588 0.29433 18.3305)
(18.5153 -0.165947 18.3267)
(18.2833 -0.448812 18.3246)
(18.0007 -0.602376 18.341)
(17.7358 -0.679002 18.358)
(17.4423 -0.695265 18.3742)
(17.2146 -0.682101 18.3834)
(16.9461 -0.630191 18.4004)
(16.8252 -0.61119 18.411)
(16.5321 -0.576251 18.4285)
(15.6127 0.0613536 18.602)
(15.6489 0.184686 18.5998)
(15.7302 0.319721 18.5949)
(15.8641 0.47521 18.5878)
(16.0651 0.650299 18.578)
(16.3559 0.838388 18.5637)
(16.7499 0.997011 18.5466)
(17.2604 1.08927 18.5269)
(17.8169 0.96522 18.5071)
(18.2461 0.667264 18.4914)
(18.4604 0.262678 18.484)
(18.4279 -0.11454 18.4815)
(18.2522 -0.352183 18.4787)
(18.0087 -0.491314 18.4896)
(17.7646 -0.561575 18.5051)
(17.4909 -0.581895 18.5166)
(17.2716 -0.577356 18.5233)
(17.0056 -0.541622 18.5365)
(16.8819 -0.528588 18.5448)
(16.5803 -0.501926 18.5587)
(15.7048 0.0527618 18.7117)
(15.7434 0.159032 18.7099)
(15.8304 0.274358 18.7061)
(15.9713 0.404955 18.7004)
(16.1771 0.548749 18.6927)
(16.4639 0.698212 18.6816)
(16.8393 0.818357 18.6686)
(17.2992 0.88009 18.6543)
(17.7872 0.778685 18.6398)
(18.1683 0.542694 18.6284)
(18.3659 0.227028 18.6226)
(18.3608 -0.0772894 18.6203)
(18.2255 -0.274791 18.6179)
(18.013 -0.399393 18.625)
(17.7888 -0.463346 18.6374)
(17.5319 -0.487038 18.6462)
(17.3223 -0.487546 18.6511)
(17.061 -0.461209 18.6612)
(16.9353 -0.450992 18.6675)
(16.6276 -0.429594 18.6785)
(15.7908 0.04372 18.8142)
(15.8312 0.131858 18.8128)
(15.9224 0.226801 18.8098)
(16.0681 0.332812 18.8055)
(16.2759 0.44755 18.7995)
(16.558 0.563709 18.7913)
(16.917 0.652856 18.7815)
(17.3375 0.694999 18.7712)
(17.773 0.614022 18.7605)
(18.1209 0.429583 18.7523)
(18.3022 0.187003 18.7477)
(18.3151 -0.0532217 18.7462)
(18.2092 -0.210824 18.7439)
(18.0244 -0.312961 18.7482)
(17.816 -0.368278 18.7566)
(17.5743 -0.389399 18.7644)
(17.3719 -0.392332 18.7684)
(17.1142 -0.374382 18.7761)
(16.9872 -0.367378 18.7808)
(16.6748 -0.351525 18.7891)
(15.8715 0.0343301 18.9102)
(15.9133 0.103555 18.9092)
(16.0075 0.177682 18.907)
(16.1564 0.259572 18.904)
(16.3654 0.346863 18.8992)
(16.6419 0.432974 18.8937)
(16.989 0.497203 18.8868)
(17.3737 0.525007 18.8796)
(17.7948 0.460796 18.8718)
(18.0738 0.32934 18.8665)
(18.3061 0.150435 18.8631)
(18.2956 -0.0354854 18.862)
(18.208 -0.156275 18.8603)
(18.041 -0.237039 18.8617)
(17.8463 -0.281113 18.8685)
(17.6172 -0.299876 18.8745)
(17.4211 -0.30438 18.8773)
(17.1669 -0.292427 18.8828)
(17.0392 -0.287442 18.8862)
(16.7244 -0.275652 18.8923)
(15.9475 0.0246873 19.0007)
(15.9902 0.0744795 19)
(16.0865 0.127557 18.9985)
(16.2373 0.185751 18.9964)
(16.4471 0.247013 18.9932)
(16.7198 0.306681 18.9895)
(17.0548 0.350427 18.9849)
(17.422 0.365132 18.9803)
(17.8016 0.324307 18.9753)
(18.0871 0.227204 18.9716)
(18.2664 0.0996851 18.9693)
(18.2962 -0.0174979 18.9688)
(18.2245 -0.105424 18.9677)
(18.0712 -0.164366 18.9687)
(17.8868 -0.197127 18.9731)
(17.6664 -0.211394 18.9771)
(17.4746 -0.215468 18.9789)
(17.2229 -0.207764 18.9827)
(17.0949 -0.204459 18.9851)
(16.7783 -0.19645 18.9894)
(16.0192 0.0148531 19.0861)
(16.0625 0.0448509 19.0857)
(16.1602 0.0767409 19.0849)
(16.3122 0.111564 19.0836)
(16.5222 0.147815 19.0819)
(16.792 0.183116 19.0797)
(17.1191 0.207801 19.0772)
(17.4738 0.218009 19.0746)
(17.831 0.191017 19.0719)
(18.1144 0.137223 19.0698)
(18.2853 0.0593221 19.0684)
(18.3134 -0.00942552 19.0682)
(18.2527 -0.0611102 19.0676)
(18.109 -0.0965247 19.0683)
(17.9322 -0.116558 19.0719)
(17.7184 -0.125845 19.0744)
(17.5295 -0.129137 19.0751)
(17.2795 -0.125141 19.0776)
(17.1513 -0.12336 19.0791)
(16.834 -0.118694 19.0819)
(16.087 0.00494157 19.1668)
(16.1305 0.0149408 19.1663)
(16.2286 0.0255653 19.1657)
(16.381 0.03715 19.165)
(16.5911 0.0490888 19.1641)
(16.8589 0.0606032 19.1631)
(17.1841 0.068095 19.162)
(17.5261 0.0723018 19.161)
(17.8959 0.0615722 19.16)
(18.1388 0.0446583 19.1592)
(18.3465 0.0243787 19.1587)
(18.3461 -0.00796372 19.1582)
(18.2969 -0.0217766 19.1579)
(18.1582 -0.0325328 19.1577)
(17.9842 -0.0389205 19.1575)
(17.7728 -0.0422132 19.1573)
(17.5853 -0.043373 19.1571)
(17.3353 -0.0418442 19.1569)
(17.2061 -0.0410869 19.1566)
(16.8876 -0.0393855 19.1564)
(13.3042 0.180361 15.7941)
(13.6747 0.269297 15.7885)
(13.4271 0.0991969 15.7704)
(13.3253 0.414663 15.7318)
(12.7729 0.540339 15.3022)
(11.8176 0.753632 14.8561)
(13.8095 0.126536 16.4337)
(13.9382 0.223831 16.4245)
(13.7868 0.30179 16.4098)
(13.6483 0.534856 16.367)
(13.3795 0.788574 16.2944)
(12.8654 1.27796 16.2141)
(11.9628 2.32339 16.0049)
(9.22388 4.09826 14.7521)
(-2.36665 0.299536 10.6093)
(-0.282719 -0.267165 11.647)
(2.92037 -0.41013 12.0126)
(6.0065 -0.595826 12.8229)
(7.17638 -0.375901 13.4146)
(9.413 -0.742186 14.1826)
(14.2216 0.12921 16.924)
(14.2256 0.235821 16.9161)
(14.1454 0.430369 16.8957)
(14.0149 0.677822 16.8584)
(13.7938 1.05864 16.8072)
(13.4812 1.75945 16.7123)
(13.1048 3.21834 16.5606)
(12.8428 5.26392 16.13)
(1.51784 -0.358348 9.08436)
(9.02356 -1.19555 12.0347)
(11.8199 -1.65886 14.209)
(13.2434 -1.44841 15.3795)
(14.5568 -1.18453 16.0201)
(14.518 -1.02593 15.9737)
(14.8174 -0.899796 16.2138)
(14.4714 0.114045 17.2288)
(14.4751 0.25901 17.2214)
(14.4205 0.457041 17.2035)
(14.3336 0.731184 17.173)
(14.2201 1.13632 17.1317)
(14.0705 1.83353 17.0455)
(14.1979 3.08799 16.9208)
(14.3848 4.74278 16.6907)
(17.441 7.09653 15.9273)
(18.7336 2.59745 14.996)
(14.6671 -1.68867 14.8215)
(16.642 -1.6858 16.2357)
(16.5222 -1.76129 16.3054)
(16.1671 -1.6399 16.5286)
(15.9093 -1.40089 16.6563)
(15.8159 -1.07242 16.7821)
(15.7991 -1.03645 16.825)
(15.7518 -0.905909 16.9121)
(14.6802 0.109408 17.4833)
(14.6873 0.269569 17.4765)
(14.6599 0.477855 17.4606)
(14.6218 0.76015 17.4353)
(14.5896 1.16924 17.3984)
(14.6204 1.7943 17.3322)
(14.8905 2.8646 17.2275)
(16.1795 3.98241 17.0658)
(18.0147 4.41057 16.8246)
(19.6158 2.52266 16.5236)
(20.6621 0.54066 16.3382)
(19.2698 -1.57094 16.3823)
(17.9202 -1.57065 16.7183)
(17.4775 -1.46182 16.8066)
(17.1293 -1.57867 16.872)
(16.6544 -1.48873 16.987)
(16.3337 -1.29268 17.0477)
(16.1599 -1.07671 17.1252)
(16.1222 -1.01705 17.157)
(16.004 -0.895946 17.2215)
(14.8609 0.102193 17.7017)
(14.8726 0.272818 17.6957)
(14.8699 0.48291 17.6822)
(14.8728 0.761398 17.6601)
(14.914 1.14848 17.63)
(15.0447 1.70936 17.5706)
(15.4566 2.48539 17.5059)
(16.6026 3.47363 17.3583)
(18.4392 2.90188 17.2091)
(19.5313 1.9751 17.1006)
(19.8409 0.158641 17.0573)
(19.1879 -0.836483 17.0776)
(18.1798 -1.28577 17.1451)
(17.7474 -1.33827 17.2033)
(17.3884 -1.40188 17.2568)