# vtk DataFile Version 2.0
tracks
ASCII
DATASET POLYDATA
POINTS 17095 float
-1.001 -0.05 0.0011 -0.735305 -0.038413 1.50087 -0.469624 -0.0263792 3.00064 -0.203917 -0.0140003
4.5004 0.0618016 -0.00137722 6.00015 0.327525 0.0114014 7.49995 0.409627 0.0153909 7.96333
0.491722 0.0193967 8.42671 0.573813 0.023412 8.8901 0.655902 0.027437 9.35348 0.738036
0.0314741 9.81715 0.921646 0.0405206 10.8537 1.10522 0.0496135 11.8902 1.28872 0.0587225
12.9268 1.47216 0.0678456 13.9634 1.65551 0.0769817 14.9998 1.92076 0.0902823 16.4998
2.18595 0.103527 17.9999 2.45105 0.116805 19.4999 2.71607 0.130118 20.9999 2.98098
0.14356 22.4998 3.24585 0.157334 23.9999 3.51065 0.17096 25.4999 3.77541 0.184462
26.9999 4.04009 0.198033 28.5 4.30463 0.211837 29.9999 4.56905 0.225877 31.4999
4.83346 0.239864 32.9999 5.09787 0.253804 34.5 5.36223 0.26785 36 5.62649
0.282222 37.5 5.89068 0.296922 39 6.15481 0.311468 40.5 6.41888 0.326034
42 6.68288 0.34073 43.5001 6.9468 0.355555 45 7.15546 0.367475 46.1864
7.36411 0.379381 47.3728 7.57272 0.391367 48.5591 7.78129 0.403433 49.7455 7.9901
0.415595 50.9336 8.04516 0.418824 51.2469 8.10021 0.422059 51.5601 8.15525 0.4253
51.8734 8.2103 0.428547 52.1867 8.26533 0.431801 52.5 8.52882 0.447371 54
8.79222 0.463119 55.5 9.05553 0.479007 57 9.31875 0.495036 58.5001 9.58184
0.511203 60 9.84491 0.527445 61.5 10.1079 0.543871 63 10.3707 0.56045
64.5001 10.6334 0.577167 66.0001 10.896 0.593872 67.5 11.1584 0.610529 69
11.4208 0.627499 70.5 11.6832 0.644732 72 11.9455 0.662094 73.5 12.2077
0.67955 75 12.4699 0.697087 76.5 12.732 0.714804 78 12.9939 0.73268
79.5001 13.2558 0.750685 81.0001 13.5175 0.768726 82.5 13.779 0.786726 84
14.0406 0.805038 85.5 14.302 0.823456 87 14.5634 0.841978 88.5001 14.8246
0.860604 90 14.908 0.866577 90.4787 14.9913 0.872566 90.9575 15.0747 0.878565
91.4362 15.158 0.884576 91.915 15.2414 0.890605 92.3944 15.4191 0.90347 93.4155
15.5967 0.91639 94.4366 15.7743 0.929364 95.4578 15.9518 0.942393 96.4789 16.1292
0.955476 97.5 16.3898 0.975028 99 16.6502 0.994445 100.5 16.9105 1.01398
102 17.1708 1.03365 103.5 17.4308 1.05354 105 17.6906 1.07387 106.5
17.9504 1.09416 108 18.2101 1.11464 109.5 18.4696 1.13533 111 18.729
1.15623 112.5 18.9883 1.1777 114 19.2475 1.19901 115.5 19.5065 1.22052
117 19.7654 1.24224 118.5 20.0242 1.26416 120 20.2827 1.28647 121.5
20.5412 1.30881 123 20.7996 1.33135 124.5 21.0578 1.3541 126 21.316
1.37706 127.5 21.5519 1.39845 128.872 21.7877 1.41981 130.244 22.0234 1.44135
131.615 22.259 1.46308 132.987 22.4956 1.48512 134.365 22.5174 1.48717 134.492
22.5391 1.48922 134.619 22.5609 1.49127 134.746 22.5827 1.49333 134.873 22.6045
1.49538 135 22.8617 1.51971 136.5 23.1188 1.54433 138 23.3757 1.56923
139.5 23.6325 1.59438 141 23.8891 1.61979 142.5 24.1242 1.64328 143.876
24.3593 1.66704 145.251 24.5942 1.69101 146.627 24.8291 1.71521 148.002 25.0392
1.73707 149.234 25.0653 1.7398 149.387 25.0914 1.74255 149.541 25.1175 1.74529
149.694 25.1436 1.74804 149.847 25.1697 1.75079 150 25.4254 1.77775 151.5
25.681 1.80495 153 25.9364 1.8324 154.5 26.1916 1.8601 156 26.4467
1.88805 157.5 26.7017 1.91633 159 26.9564 1.94477 160.5 27.2111 1.97346
162 27.4656 2.0024 163.5 27.7199 2.03158 165 27.974 2.06116 166.5
28.2281 2.09084 168 28.482 2.12076 169.5 28.7357 2.15094 171 28.9892
2.18135 172.5 29.1406 2.19981 173.395 29.2919 2.21827 174.291 29.4431 2.23685
175.186 29.5943 2.25554 176.081 29.7461 2.27443 176.98 29.848 2.2872 177.584
29.95 2.30003 178.188 30.0519 2.31291 178.792 30.1538 2.32585 179.396 30.2557
2.33885 180 30.5086 2.37142 181.5 30.7615 2.40423 183 31.0144 2.43739
184.5 31.2671 2.47092 186 31.5197 2.50482 187.5 31.7716 2.5392 189
32.0239 2.57386 190.5 32.2761 2.60885 192 32.5282 2.64422 193.5 32.7802
2.68018 195 33.0319 2.71697 196.5 33.2835 2.75374 198 33.535 2.79061
199.5 33.7864 2.82786 201 34.0373 2.86557 202.5 34.2874 2.90379 204
34.5379 2.94229 205.5 34.7887 2.98117 207 35.0393 3.02053 208.5 35.2898
3.06052 210 35.54 3.10134 211.5 35.7901 3.14215 213 36.0401 3.18343
214.5 36.2899 3.22516 216 36.5394 3.2673 217.5 36.6267 3.28223 218.026
36.714 3.29721 218.551 36.8013 3.31225 219.077 36.8886 3.32736 219.602 36.9758
3.34252 220.127 37.1377 3.37079 221.102 37.2995 3.39929 222.076 37.4613 3.42801
223.051 37.623 3.45693 224.025 37.7846 3.48606 225 38.0332 3.53135 226.5
38.2816 3.57699 228 38.5299 3.62311 229.5 38.7778 3.66964 231 39.0256
3.71669 232.5 39.2737 3.76464 234 39.5213 3.81279 235.5 39.7687 3.86137
237 40.0161 3.91059 238.5 40.2633 3.96044 240 40.5103 4.0111 241.5
40.7573 4.06205 243 41.0044 4.11357 244.5 41.2516 4.16567 246 41.4986
4.2183 247.5 41.7459 4.27178 249 41.9929 4.32559 250.5 42.2398 4.38002
252 42.4865 4.43499 253.5 42.7329 4.4905 255 42.8697 4.5217 255.833
43.0065 4.55303 256.666 43.1433 4.58455 257.499 43.2802 4.61627 258.333 43.4099
4.6465 259.122 43.7674 4.73032 261.298 44.1252 4.81534 263.473 44.483 4.90147
265.649 44.8407 4.98928 267.824 45.1987 5.07913 270 45.6937 5.20637 273
46.1887 5.33715 276 46.6849 5.47221 278.999 47.1816 5.61073 281.999 47.6794
5.75166 285 48.1824 5.89949 288 48.6836 6.05026 291 49.1886 6.20804
293.999 49.6958 6.37265 296.998 50.2044 6.54311 -0.000302608 50.4896 6.64308 1.67879
50.7761 6.74408 3.3576 51.0638 6.84787 5.03603 51.3526 6.95437 6.71409 51.6328
7.05905 8.33768 51.8631 7.14607 9.67006 52.0935 7.23364 11.0024 52.3242 7.32188
12.3346 52.5555 7.41108 13.6667 52.7875 7.50133 14.9996 53.0498 7.60359 16.4996
53.3121 7.70612 17.9997 53.575 7.80892 19.4996 53.8384 7.91233 20.9994 54.1026
8.01641 22.4999 54.3702 8.12161 23.9999 54.6356 8.22626 25.5003 54.9012 8.33155
27.0007 55.1672 8.43667 28.501 55.4348 8.5424 30 55.7057 8.65028 31.5
55.9753 8.75746 33.0003 56.2445 8.86412 34.5006 56.5152 8.9719 36.0007 56.7883
9.07992 37.5 57.0658 9.18928 39 57.3414 9.29842 40.5004 57.6185 9.40812
42.0004 57.8972 9.51843 43.5001 58.1775 9.62941 45 58.2187 9.64575 45.2193
58.26 9.66209 45.4386 58.3012 9.67843 45.6579 58.3426 9.69479 45.8771 58.3838
9.71111 46.0956 58.6255 9.80684 47.3765 58.8686 9.90291 48.6571 59.113 9.99933
49.9374 59.3587 10.0961 51.2174 59.6065 10.1935 52.5 59.7636 10.2562 53.303
59.9208 10.3181 54.1061 60.0789 10.3804 54.909 60.2378 10.4431 55.7117 60.4
10.5072 56.5262 60.539 10.5622 57.2209 60.6784 10.6172 57.9156 60.8181 10.6725
58.6102 60.9581 10.7277 59.3048 61.0982 10.7829 60 61.4025 10.9032 61.5
61.7074 11.0232 62.9999 62.0138 11.1437 64.4995 62.3212 11.2643 65.9988 62.631
11.3854 67.5 62.9443 11.5057 69 63.2577 11.6274 70.4999 63.5727 11.7505
71.9993 63.8911 11.8741 73.4979 64.2114 11.9977 75 64.5026 12.1104 76.3438
64.7963 12.2222 77.687 65.0929 12.3345 79.0297 65.392 12.4474 80.3717 65.6674
12.5505 81.6006 65.7079 12.5656 81.7805 65.7484 12.5807 81.9604 65.7889 12.5958
82.1402 65.8294 12.6108 82.3201 65.8699 12.6259 82.5 66.0391 12.688 83.25
66.2085 12.7508 83.9999 66.3784 12.8138 84.7497 66.5488 12.8769 85.4993 66.7201
12.9399 86.25 66.893 13.0008 87 67.0652 13.0629 87.75 67.237 13.1259
88.5001 67.4094 13.1878 89.2501 67.5828 13.2482 90 67.7577 13.3059 90.75
67.9324 13.3657 91.4999 68.1078 13.4247 92.2496 68.2839 13.4828 92.9993 68.4611
13.5403 93.75 68.5003 13.5527 93.9154 68.5396 13.5652 94.0807 68.5789 13.5777
94.2461 68.6182 13.5901 94.4115 68.658 13.6026 94.5788 68.7971 13.6461 95.1631
68.9367 13.6895 95.7472 69.0766 13.7328 96.3313 69.217 13.7759 96.9152 69.358
13.8191 97.5 69.7199 13.9291 99 70.0841 14.036 100.5 70.4498 14.1394
101.999 70.8176 14.24 103.499 71.188 14.338 105 71.5625 14.4293 106.5
71.9364 14.5221 108 72.3123 14.6134 109.5 72.6905 14.7031 110.999 73.0704
14.7911 112.5 73.0718 14.7914 112.505 73.0732 14.7917 112.511 73.0745 14.792
112.516 73.0759 14.7923 112.522 73.0773 14.7926 112.527 73.4569 14.8782 114.022
73.8375 14.9623 115.516 74.2191 15.0447 117.01 74.6018 15.1255 118.504 74.9858
15.2049 120 75.3689 15.2844 121.5 75.7549 15.3613 122.999 76.1434 15.4359
124.498 76.5326 15.5089 125.997 76.9194 15.581 127.5 77.3017 15.6517 129
77.6889 15.7213 130.499 78.0793 15.7898 131.997 78.47 15.8571 133.495 78.862
15.9238 135 79.1729 15.9767 136.199 79.4849 16.028 137.397 79.7966 16.0786
138.595 80.1082 16.1284 139.794 80.4162 16.1769 140.98 80.4952 16.1892 141.284
80.5741 16.2014 141.588 80.653 16.2136 141.892 80.7319 16.2258 142.196 80.8108
16.2379 142.5 81.1999 16.2975 144 81.5893 16.3564 145.5 81.9787 16.4145
147 82.3683 16.4721 148.5 82.7583 16.5291 150 83.1484 16.5857 151.5
83.5389 16.6416 153 83.9294 16.6969 154.5 84.3201 16.7516 156 84.711
16.8058 157.5 84.7677 16.8136 157.718 84.8244 16.8213 157.935 84.8811 16.8291
158.153 84.9379 16.8368 158.37 84.9957 16.8447 158.592 85.33 16.8902 159.874
85.6644 16.9351 161.155 85.9993 16.9796 162.437 86.3345 17.0236 163.718 86.6696
17.067 165 86.8637 17.0919 165.742 87.0577 17.1166 166.484 87.2518 17.1411
167.226 87.4462 17.1654 167.968 87.6401 17.1896 168.707 87.8393 17.2143 169.466
88.0385 17.2388 170.224 88.2377 17.2632 170.983 88.4368 17.2875 171.742 88.6359
17.3116 172.5 89.0301 17.3578 174 89.4245 17.4049 175.5 89.8198 17.4516
177 90.2154 17.498 178.499 90.6118 17.5441 180 91.0089 17.5879 181.5
91.4063 17.6331 183 91.8042 17.6776 184.5 92.2027 17.7208 185.999 92.6026
17.7627 187.5 93.003 17.8032 189 93.4042 17.8423 190.5 93.8065 17.8802
191.999 94.2099 17.917 193.499 94.6143 17.9523 195 94.6695 17.9568 195.204
94.7246 17.9614 195.409 94.7798 17.9659 195.613 94.835 17.9704 195.818 94.89
17.9749 196.021 95.2403 18.0033 197.317 95.5913 18.0303 198.613 95.9427 18.0557
199.908 96.2943 18.0793 201.204 96.6464 18.101 202.5 97.0565 18.1248 204
97.4659 18.146 205.5 97.8751 18.1649 207.001 98.285 18.1816 208.501 98.6963
18.1965 210 99.1065 18.209 211.5 99.5172 18.2193 213 99.9286 18.2278
214.5 100.34 18.2349 215.999 100.751 18.2408 217.5 101.059 18.2442 218.623
101.366 18.2469 219.745 101.674 18.2488 220.867 101.982 18.25 221.99 102.287
18.2502 223.101 102.392 18.25 223.481 102.496 18.2498 223.861 102.6 18.2495
224.241 102.704 18.2492 224.62 102.808 18.2488 225 103.219 18.2469 226.5
[...]
POINT_DATA 17095
FIELD attributes 4
age 1 17095 float
0 0.0717023 0.143338 0.214982 0.286642 0.358326 0.380486 0.402642 0.424799 0.446957 0.46913
0.518703 0.568272 0.617829 0.667374 0.716902 0.788637 0.86029 0.93193 1.00356 1.07518
1.14686 1.21849 1.29008 1.36167 1.43337 1.50517 1.57688 1.64849 1.7201 1.79176
1.86348 1.93516 2.00683 2.07852 2.15022 2.207 2.26374 2.32048 2.37724 2.43408
2.44907 2.46406 2.47905 2.49404 2.50903 2.58083 2.65258 2.72432 2.79605 2.86776
2.93955 3.01126 3.08293 3.1546 3.22635 3.29825 3.37001 3.44166 3.51332 3.58503
3.65682 3.72853 3.8002 3.87188 3.94361 4.01549 4.08723 4.159 4.23078 4.30258
4.32552 4.34844 4.37137 4.3943 4.41727 4.46619 4.5151 4.56401 4.6129 4.66179
4.73365 4.80543 4.8772 4.94894 5.0207 5.09265 5.16442 5.23618 5.30795 5.37971
5.45159 5.52337 5.59515 5.66693 5.73872 5.81064 5.88244 5.95423 6.02604 6.09784
6.16356 6.22923 6.29491 6.36061 6.42663 6.43271 6.43879 6.44488 6.45096 6.45704
6.52893 6.60079 6.67264 6.7445 6.81636 6.88233 6.94826 7.01419 7.08013 7.13919
7.14653 7.15387 7.16122 7.16856 7.1759 7.24782 7.31975 7.39169 7.46363 7.53557
7.60753 7.67949 7.75145 7.82341 7.89537 7.9674 8.03937 8.11135 8.18334 8.25532
8.29832 8.3413 8.38429 8.42728 8.47047 8.49948 8.52849 8.5575 8.5865 8.61551
8.68759 8.75961 8.83161 8.90361 8.9756 9.04781 9.11984 9.19182 9.2638 9.33586
9.40803 9.4801 9.55213 9.62416 9.69635 9.76878 9.84101 9.91309 9.9852 10.0574
10.1297 10.2019 10.2741 10.3464 10.4188 10.4441 10.4695 10.4949 10.5202 10.5456
10.5926 10.6396 10.6866 10.7337 10.7806 10.8532 10.9254 10.9977 11.07 11.1424
11.2148 11.2872 11.3595 11.4317 11.5041 11.5768 11.6492 11.7215 11.7938 11.8662
11.9387 12.0111 12.0835 12.156 12.2285 12.2689 12.3092 12.3495 12.3898 12.4279
12.5331 12.6383 12.7434 12.8487 12.9543 13.0999 13.2459 13.3919 13.5384 13.6857
13.8325 13.98 14.1276 14.2754 14.4235 14.507 14.5899 14.6727 14.7554 14.8354
14.9011 14.9667 15.0323 15.0979 15.1636 15.2376 15.3114 15.3852 15.4589 15.5326
15.6065 15.6801 15.7537 15.8272 15.9008 15.9749 16.0486 16.122 16.1954 16.2688
16.3425 16.416 16.4894 16.5629 16.6364 16.6472 16.6579 16.6687 16.6795 16.6902
16.753 16.8159 16.8787 16.9415 17.0044 17.0441 17.0836 17.1231 17.1627 17.2028
17.2371 17.2713 17.3056 17.3398 17.3741 17.4482 17.522 17.5958 17.6695 17.7434
17.8173 17.8911 17.9648 18.0384 18.1124 18.1791 18.2452 18.3114 18.3776 18.4383
18.4472 18.456 18.4649 18.4738 18.4826 18.5196 18.5566 18.5935 18.6304 18.6674
18.7044 18.7414 18.7782 18.8151 18.8519 18.8889 18.9257 18.9626 18.9994 19.0363
19.0445 19.0526 19.0607 19.0688 19.0771 19.1058 19.1345 19.1633 19.192 19.2208
19.2947 19.3685 19.4422 19.516 19.5899 19.6641 19.738 19.812 19.8861 19.9602
19.9605 19.9607 19.961 19.9613 19.9615 20.0353 20.1091 20.1828 20.2565 20.3302
20.4041 20.478 20.5519 20.6257 20.7001 20.7745 20.8485 20.9222 20.996 21.0701
21.1292 21.1883 21.2474 21.3065 21.3651 21.3801 21.3951 21.4101 21.4251 21.4401
21.5143 21.5882 21.662 21.7358 21.8097 21.8837 21.9576 22.0315 22.1053 22.1792
22.1899 22.2006 22.2113 22.222 22.233 22.2961 22.3592 22.4225 22.4857 22.5489
22.5855 22.6221 22.6587 22.6954 22.7319 22.7694 22.8069 22.8444 22.8818 22.9192
22.9931 23.067 23.141 23.215 23.2891 23.3633 23.4374 23.5115 23.5855 23.6597
23.734 23.8081 23.8823 23.9565 24.0309 24.041 24.0511 24.0613 24.0714 24.0815
24.1458 24.21 24.2743 24.3384 24.4025 24.4771 24.5513 24.6253 24.6993 24.7736
24.8481 24.9224 24.9965 25.0707 25.145 25.2008 25.2564 25.3121 25.3678 25.4232
25.4421 25.461 25.4799 25.4988 25.5176 25.5922 25.6667 25.7412 25.8156 25.8901
25.9649 26.0395 26.1137 26.1879 26.2624 26.3372 26.4117 26.4862 26.5607 26.6351
26.6615 26.6878 26.7141 26.7404 26.7672 26.8155 26.8638 26.9121 26.9603 27.0085
27.0834 27.1579 27.2323 27.3067 27.3812 27.4561 27.5307 27.605 27.6793 27.7538
27.8286 27.9032 27.9779 28.0527 28.1276 28.1343 28.1411 28.1479 28.1546 28.1614
28.2295 28.2976 28.3655 28.4337 28.5016 28.5763 28.651 28.7256 28.8003 28.8752
28.9502 29.025 29.0994 29.1739 29.2485 29.3208 29.393 29.4652 29.5375 29.6105
29.6131 29.6156 29.6181 29.6206 29.6231 29.6982 29.7732 29.8481 29.923 29.9979
30.1483 30.299 30.4496 30.6004 30.7513 30.7548 30.7584 30.7619 30.7655 30.7683
30.8405 30.9127 30.9849 31.0571 31.1292 31.1321 31.135 31.1379 31.1408 31.1437
31.2163 31.2889 31.3615 31.434 31.5065 31.5824 31.6578 31.7331 31.8082 31.8835
31.9593 32.0347 32.1098 32.1849 32.2603 32.3364 32.4119 32.4873 32.5629 32.6388
32.6673 32.6958 32.7244 32.7529 32.7817 32.8293 32.8769 32.9244 32.972 33.0195
33.1733 33.3252 33.4773 33.6293 33.7821 33.9373 34.0905 34.2422 34.3941 34.548
34.7046 34.8591 35.0114 35.1642 35.3181 35.4741 35.6278 35.7817 35.936 36.0904
36.1065 36.1226 36.1387 36.1547 36.1709 36.3097 36.4485 36.5871 36.7256 36.8639
37.0195 37.1738 37.3276 37.4813 37.6362 37.7922 37.9466 38.1003 38.2541 38.4086
38.5643 38.7184 38.8723 39.0263 39.1804 39.3192 39.457 39.595 39.7332 39.8701
39.8868 39.9036 39.9203 39.937 39.9537 40.1086 40.2634 40.4181 40.5733 40.728
40.8832 41.0381 41.1931 41.3481 41.5033 41.6585 41.8139 41.9691 42.1243 42.2797
42.3018 42.3241 42.3463 42.3685 42.3914 42.4468 42.5022 42.5575 42.6128 42.6682
42.746 42.8237 42.9013 42.9789 43.0566 43.1344 43.2121 43.2897 43.3675 43.4453
43.5155 43.5856 43.6557 43.7257 43.7951 43.803 43.8109 43.8188 43.8267 43.8346
43.9124 43.9901 44.0679 44.1458 44.2238 44.3018 44.3798 44.4576 44.5353 44.6131
44.691 44.7688 44.8466 44.9244 45.0023 45.0804 45.1583 45.2361 45.314 45.3921
45.4702 45.5483 45.6264 45.7044 45.7825 45.7854 45.7884 45.7913 45.7942 45.7972
45.8723 45.9475 46.0226 46.0977 46.1729 46.2512 46.3292 46.4071 46.485 46.563
46.6412 46.7192 46.7969 46.8747 46.9528 47.0311 47.1091 47.187 47.265 47.3432
47.4216 47.4997 47.5779 47.6561 47.7344 47.7553 47.7762 47.7971 47.818 47.8389
47.9748 48.1107 48.2468 48.3828 48.5187 48.6765 48.8332 48.9901 49.1469 49.3044
49.4628 49.6204 49.7773 49.9342 50.0923 50.2514 50.4095 50.5667 50.724 50.8826
51.0422 51.2 51.3575 51.515 51.6731 51.7449 51.8164 51.8879 51.9594 52.0284
52.0363 52.0442 52.0522 52.0601 52.068 52.147 52.226 52.305 52.3841 52.4631
52.5421 52.6211 52.7002 52.7792 52.8583 52.8877 52.9171 52.9465 52.9759 53.0052
53.0549 53.1045 53.1542 53.2039 53.2536 53.3327 53.4118 53.4909 53.57 53.6491
53.7283 53.8074 53.8865 53.9657 54.0448 54.0645 54.0842 54.1038 54.1235 54.1431
54.2027 54.2623 54.3219 54.3815 54.4411 54.5204 54.5996 54.6789 54.7582 54.8375
54.9168 54.9961 55.0754 55.1548 55.2341 55.3135 55.3929 55.4722 55.5516 55.631
55.7104 55.7898 55.8692 55.9486 56.0281 56.0766 56.1251 56.1736 56.2221 56.2704
56.3015 56.3326 56.3637 56.3948 56.4259 56.5851 56.7443 56.9036 57.0628 57.222
57.382 57.5413 57.7006 57.8598 58.0196 58.1803 58.3403 58.4998 58.6594 58.8197
58.9807 59.1408 59.3003 59.4597 59.6199 59.7808 59.9408 60.1004 60.2604 60.421
60.4473 60.4736 60.4999 60.5262 60.5523 0 0.0711968 0.142328 0.213469 0.284626
0.355807 0.378468 0.401125 0.423783 0.446442 0.469117 0.518189 0.567256 0.616312 0.665356
0.714384 0.786118 0.857771 0.929411 1.00104 1.07266 1.14434 1.21597 1.28756 1.35915
1.43085 1.50265 1.57436 1.64597 1.71758 1.78924 1.86096 1.93264 2.00431 2.076
2.1477 2.20498 2.26222 2.31947 2.37673 2.43407 2.44856 2.46305 2.47754 2.49202
2.50651 2.5783 2.65006 2.7218 2.79353 2.86524 2.93703 3.00874 3.08041 3.15208
3.22383 3.29573 3.36749 3.43914 3.5108 3.58251 3.6543 3.72601 3.79768 3.86935
3.94109 4.01297 4.08471 4.15647 4.22826 4.30006 4.3235 4.34693 4.37036 4.39379
4.41727 4.46568 4.51409 4.56249 4.61088 4.65926 4.73113 4.80291 4.87467 4.94642
5.01818 5.09013 5.16189 5.23366 5.30542 5.37719 5.44907 5.52084 5.59263 5.66441
5.73619 5.80812 5.87991 5.95171 6.02351 6.09531 6.16154 6.22771 6.29389 6.36009
6.42662 6.4322 6.43778 6.44336 6.44894 6.45451 6.52641 6.59826 6.67011 6.74197
6.81383 6.88031 6.94675 7.01319 7.07964 7.1391 7.14595 7.15281 7.15966 7.16652
7.17337 7.2453 7.31722 7.38916 7.4611 7.53304 7.605 7.67696 7.74892 7.82088
7.89284 7.96487 8.03684 8.10882 8.18081 8.25279 8.29629 8.33978 8.38327 8.42677
8.47046 8.49897 8.52747 8.55597 8.58448 8.61298 8.68506 8.75708 8.82908 8.90108
8.97307 9.04528 9.11731 9.18928 9.26127 9.33333 9.40549 9.47757 9.54959 9.62162
9.69382 9.76624 9.83847 9.91055 9.98266 10.0549 10.1272 10.1994 10.2716 10.3439
10.4162 10.4421 10.468 10.4938 10.5197 10.5456 10.5921 10.6386 10.6851 10.7316
10.7781 10.8506 10.9229 10.9952 11.0675 11.1398 11.2123 11.2846 11.3569 11.4292
11.5015 11.5743 11.6466 11.719 11.7913 11.8637 11.9362 12.0086 12.081 12.1534
12.2259 12.2668 12.3076 12.3485 12.3893 12.4279 12.5326 12.6372 12.7419 12.8467
12.9518 13.0974 13.2433 13.3894 13.5359 13.6831 13.8299 13.9774 14.125 14.2728
14.4209 14.5048 14.5881 14.6713 14.7544 14.8348 14.9001 14.9653 15.0305 15.0957
15.161 15.235 15.3089 15.3826 15.4563 15.53 15.6039 15.6775 15.7511 15.8246
15.8982 15.9724 16.0461 16.1194 16.1928 16.2663 16.3399 16.4134 16.4868 16.5603
16.6338 16.6451 16.6564 16.6677 16.6789 16.6902 16.7525 16.8148 16.8771 16.9394
17.0019 17.0421 17.0821 17.1221 17.1621 17.2027 17.2365 17.2703 17.304 17.3377
17.3715 17.4456 17.5194 17.5932 17.6669 17.7408 17.8147 17.8885 17.9622 18.0358
18.1098 18.177 18.2436 18.3104 18.3771 18.4383 18.4466 18.455 18.4633 18.4717
18.48 18.517 18.554 18.5909 18.6279 18.6648 18.7018 18.7388 18.7756 18.8125
18.8493 18.8863 18.9231 18.96 18.9968 19.0337 19.0424 19.051 19.0596 19.0682
19.077 19.1052 19.1334 19.1617 19.1899 19.2182 19.2921 19.3659 19.4396 19.5134
19.5873 19.6615 19.7354 19.8094 19.8834 19.9576 19.9584 19.9592 19.9599 19.9607
19.9615 20.0348 20.108 20.1812 20.2544 20.3276 20.4015 20.4754 20.5493 20.6231
20.6975 20.7719 20.8459 20.9196 20.9934 21.0675 21.1271 21.1867 21.2463 21.306
21.365 21.3795 21.394 21.4085 21.423 21.4375 21.5117 21.5856 21.6594 21.7332
21.8071 21.8811 21.955 22.0288 22.1027 22.1766 22.1878 22.199 22.2102 22.2214
22.2328 22.2954 22.3581 22.4208 22.4836 22.5463 22.5834 22.6205 22.6576 22.6948
22.7319 22.7689 22.8059 22.8428 22.8797 22.9166 22.9905 23.0644 23.1384 23.2124
23.2865 23.3607 23.4348 23.5088 23.5829 23.657 23.7314 23.8055 23.8796 23.9539
24.0282 24.0389 24.0495 24.0602 24.0708 24.0814 24.1452 24.209 24.2727 24.3363
24.3999 24.4745 24.5487 24.6227 24.6967 24.771 24.8455 24.9198 24.9939 25.068
25.1424 25.1987 25.2548 25.311 25.3673 25.4231 25.4415 25.4599 25.4783 25.4966
25.515 25.5896 25.6641 25.7386 25.813 25.8874 25.9623 26.0368 26.111 26.1853
26.2597 26.3345 26.4091 26.4835 26.558 26.6324 26.6593 26.6861 26.713 26.7399
26.7672 26.815 26.8627 26.9105 26.9582 27.0058 27.0807 27.1552 27.2296 27.304
27.3785 27.4534 27.528 27.6023 27.6767 27.7511 27.8259 27.9005 27.9752 28.0501
28.1249 28.1321 28.1394 28.1467 28.1539 28.1612 28.2288 28.2964 28.3639 28.4315
28.4989 28.5736 28.6483 28.7229 28.7976 28.8725 28.9475 29.0223 29.0967 29.1712
29.2458 29.3186 29.3913 29.4641 29.5369 29.6104 29.6124 29.6144 29.6164 29.6184
29.6204 29.6955 29.7705 29.8454 29.9203 29.9952 30.1456 30.2963 30.4469 30.5977
30.7486 30.7528 30.757 30.7612 30.7654 30.7686 30.8402 30.9119 30.9834 31.055
31.1265 31.1299 31.1333 31.1367 31.1402 31.1436 31.2157 31.2878 31.3598 31.4318
31.5038 31.5797 31.6551 31.7304 31.8055 31.8808 31.9566 32.032 32.1071 32.1822
32.2576 32.3337 32.4092 32.4846 32.5602 32.636 32.6651 32.6942 32.7232 32.7523
32.7816 32.8287 32.8757 32.9228 32.9698 33.0167 33.1705 33.3225 33.4746 33.6266
33.7794 33.9345 34.0877 34.2395 34.3913 34.5453 34.7018 34.8563 35.0087 35.1614
35.3153 35.4714 35.625 35.7789 35.9332 36.0876 36.1042 36.1209 36.1375 36.1541
36.1708 36.3091 36.4473 36.5854 36.7233 36.8611 37.0167 37.171 37.3248 37.4785
37.6334 37.7894 37.9438 38.0976 38.2513 38.4058 38.5615 38.7156 38.8695 39.0235
39.1776 39.317 39.4553 39.5939 39.7326 39.8701 39.8862 39.9024 39.9186 39.9347
39.9509 40.1058 40.2606 40.4153 40.5704 40.7252 40.8804 41.0353 41.1903 41.3453
41.5005 41.6557 41.8111 41.9663 42.1215 42.2769 42.2997 42.3225 42.3454 42.3682
42.3918 42.4466 42.5013 42.5559 42.6106 42.6653 42.7431 42.8209 42.8985 42.9761
43.0538 43.1316 43.2092 43.2869 43.3646 43.4425 43.5133 43.5839 43.6545 43.7251
43.795 43.8024 43.8097 43.8171 43.8244 43.8318 43.9096 43.9873 44.0651 44.143
44.2209 44.299 44.3769 44.4547 44.5324 44.6103 44.6882 44.766 44.8438 44.9216
44.9995 45.0775 45.1554 45.2332 45.3112 45.3892 45.4674 45.5455 45.6236 45.7016
45.7796 45.7831 45.7866 45.7901 45.7936 45.7971 45.8717 45.9463 46.0208 46.0954
46.17 46.2483 46.3264 46.4043 46.4821 46.5601 46.6384 46.7163 46.7941 46.8719
46.95 47.0282 47.1063 47.1842 47.2621 47.3403 47.4187 47.4969 47.5751 47.6533
47.7316 47.753 47.7745 47.7959 47.8173 47.8388 47.9741 48.1095 48.245 48.3805
48.5158 48.6736 48.8304 48.9872 49.144 49.3015 49.46 49.6175 49.7744 49.9313
50.0894 50.2485 50.4066 50.5638 50.7211 50.8797 51.0393 51.1971 51.3546 51.5122
51.6702 51.7426 51.8146 51.8867 51.9587 52.0283 52.0356 52.043 52.0504 52.0577
52.0651 52.1441 52.2231 52.3021 52.3812 52.4602 52.5392 52.6182 52.6973 52.7763
52.8554 52.8855 52.9157 52.9459 52.976 53.006 53.0549 53.1039 53.1528 53.2018
53.2507 53.3298 53.4089 53.488 53.5671 53.6462 53.7254 53.8045 53.8836 53.9627
54.0419 54.0621 54.0824 54.1026 54.1228 54.143 54.202 54.2611 54.3201 54.3791
54.4381 54.5175 54.5967 54.676 54.7553 54.8346 54.9139 54.9932 55.0725 55.1518
55.2312 55.3106 55.39 55.4693 55.5487 55.628 55.7075 55.7869 55.8663 55.9457
56.0252 56.0742 56.1233 56.1723 56.2214 56.2703 56.3008 56.3314 56.3619 56.3924
56.423 56.5822 56.7414 56.9006 57.0599 57.219 57.379 57.5384 57.6976 57.8569
58.0166 58.1773 58.3374 58.4969 58.6565 58.8167 58.9777 59.1378 59.2973 59.4568
59.6169 59.7778 59.9378 60.0975 60.2575 60.418 60.4449 60.4718 60.4986 60.5254
60.5521 0 0.0706913 0.14132 0.211957 0.282611 0.353289 0.376452 0.399609 0.422768
0.445928 0.469105 0.517675 0.566242 0.614796 0.663339 0.711866 0.7836 0.855254 0.926894
0.998521 1.07015 1.14182 1.21345 1.28505 1.35664 1.42833 1.50013 1.57184 1.64346
1.71507 1.78673 1.85844 1.93012 2.00179 2.07348 2.14518 2.20296 2.26071 2.31846
2.37622 2.43407 2.44806 2.46204 2.47602 2.49001 2.50399 2.57578 2.64754 2.71928
2.79101 2.86272 2.93451 3.00622 3.07789 3.14956 3.22131 3.29321 3.36497 3.43662
3.50828 3.57999 3.65178 3.72349 3.79516 3.86683 3.93857 4.01045 4.08219 4.15395
4.22574 4.29754 4.32148 4.34541 4.36935 4.39329 4.41726 4.46518 4.51308 4.56098
4.60886 4.65674 4.72861 4.80039 4.87215 4.9439 5.01566 5.08761 5.15937 5.23114
5.3029 5.37467 5.44654 5.51832 5.5901 5.66189 5.73367 5.8056 5.87739 5.94919
6.02099 6.09279 6.15952 6.2262 6.29288 6.35958 6.42662 6.43169 6.43677 6.44184
6.44692 6.45199 6.52388 6.59574 6.66759 6.73945 6.81131 6.8783 6.94524 7.0122
7.07916 7.13902 7.14539 7.15175 7.15812 7.16448 7.17085 7.24277 7.3147 7.38663
7.45857 7.53051 7.60247 7.67443 7.74639 7.81836 7.89031 7.96234 8.03431 8.10629
8.17828 8.25026 8.29426 8.33825 8.38225 8.42625 8.47046 8.49846 8.52645 8.55445
8.58245 8.61045 8.68253 8.75455 8.82655 8.89855 8.97054 9.04275 9.11478 9.18675
9.25874 9.33079 9.40296 9.47503 9.54706 9.61909 9.69128 9.7637 9.83593 9.90801
9.98013 10.0523 10.1246 10.1968 10.2691 10.3413 10.4137 10.4401 10.4664 10.4928
10.5192 10.5455 10.5916 10.6376 10.6836 10.7296 10.7756 10.8481 10.9204 10.9926
11.0649 11.1373 11.2098 11.2821 11.3544 11.4266 11.499 11.5717 11.6441 11.7164
11.7888 11.8611 11.9336 12.006 12.0784 12.1509 12.2234 12.2648 12.3061 12.3475
12.3888 12.4279 12.5321 12.6362 12.7403 12.8446 12.9492 13.0948 13.2407 13.3868
13.5333 13.6805 13.8273 13.9748 14.1224 14.2702 14.4183 14.5026 14.5863 14.67
14.7535 14.8343 14.8991 14.9639 15.0287 15.0935 15.1584 15.2324 15.3063 15.3801
15.4538 15.5275 15.6013 15.6749 15.7485 15.822 15.8956 15.9698 16.0435 16.1168
16.1903 16.2637 16.3374 16.4108 16.4843 16.5577 16.6313 16.6431 16.6548 16.6666
16.6784 16.6901 16.752 16.8138 16.8756 16.9374 16.9993 17.04 17.0805 17.1211
17.1616 17.2027 17.2359 17.2692 17.3024 17.3357 17.3689 17.443 17.5168 17.5906
17.6644 17.7382 17.8121 17.8859 17.9596 18.0332 18.1072 18.1749 18.2421 18.3093
18.3766 18.4382 18.4461 18.4539 18.4618 18.4696 18.4775 18.5144 18.5514 18.5883
18.6253 18.6623 18.6993 18.7362 18.773 18.8099 18.8468 18.8837 18.9205 18.9574
18.9942 19.0311 19.0403 19.0494 19.0585 19.0677 19.0769 19.1046 19.1323 19.1601
19.1878 19.2156 19.2895 19.3633 19.437 19.5108 19.5847 19.6589 19.7328 19.8068
19.8808 19.955 19.9563 19.9576 19.9589 19.9602 19.9615 20.0342 20.107 20.1797
20.2523 20.325 20.3989 20.4728 20.5467 20.6205 20.6948 20.7693 20.8433 20.917
20.9908 21.0649 21.125 21.1851 21.2453 21.3055 21.365 21.379 21.393 21.4069
21.4209 21.4349 21.5091 21.583 21.6568 21.7306 21.8045 21.8785 21.9524 22.0262
22.1001 22.174 22.1856 22.1973 22.209 22.2207 22.2327 22.2948 22.357 22.4192
22.4815 22.5437 22.5813 22.6189 22.6566 22.6943 22.7318 22.7683 22.8048 22.8412
22.8776 22.9139 22.9879 23.0618 23.1358 23.2098 23.2838 23.358 23.4322 23.5062
23.5802 23.6544 23.7288 23.8029 23.877 23.9513 24.0256 24.0368 24.0479 24.0591
24.0703 24.0814 24.1446 24.2079 24.2711 24.3342 24.3973 24.4718 24.5461 24.6201
24.694 24.7683 24.8429 24.9172 24.9912 25.0654 25.1397 25.1965 25.2532 25.3099
25.3667 25.423 25.4409 25.4588 25.4767 25.4945 25.5123 25.5869 25.6614 25.7359
25.8104 25.8848 25.9596 26.0342 26.1084 26.1826 26.2571 26.3319 26.4064 26.4809
26.5554 26.6298 26.6572 26.6845 26.7119 26.7393 26.7671 26.8144 26.8616 26.9088
26.9561 27.0032 27.0781 27.1526 27.227 27.3013 27.3759 27.4508 27.5254 27.5997
27.674 27.7485 27.8233 27.8978 27.9726 28.0474 28.1222 28.13 28.1377 28.1455
28.1532 28.161 28.2281 28.2952 28.3622 28.4293 28.4963 28.571 28.6456 28.7203
28.7949 28.8698 28.9449 29.0196 29.094 29.1685 29.2431 29.3164 29.3897 29.4629
29.5362 29.6103 29.6118 29.6133 29.6147 29.6162 29.6177 29.6928 29.7678 29.8428
29.9177 29.9925 30.1429 30.2936 30.4442 30.595 30.7459 30.7507 30.7555 30.7604
30.7652 30.7689 30.8399 30.9109 30.9819 31.0529 31.1237 31.1277 31.1317 31.1356
31.1396 31.1435 31.2151 31.2867 31.3582 31.4297 31.5011 31.577 31.6524 31.7277
31.8029 31.8781 31.9539 32.0293 32.1044 32.1795 32.2549 32.331 32.4065 32.4819
32.5575 32.6333 32.663 32.6925 32.7221 32.7517 32.7816 32.8281 32.8746 32.9211
32.9676 33.014 33.1678 33.3198 33.4719 33.6239 33.7766 33.9318 34.085 34.2367
34.3885 34.5425 34.699 34.8535 35.0059 35.1586 35.3126 35.4686 35.6222 35.7761
35.9304 36.0848 36.102 36.1192 36.1364 36.1535 36.1708 36.3085 36.4462 36.5837
36.7211 36.8583 37.0139 37.1682 37.322 37.4758 37.6306 37.7866 37.9411 38.0948
38.2485 38.403 38.5587 38.7128 38.8667 39.0207 39.1748 39.3147 39.4536 39.5927
39.732 39.87 39.8856 39.9012 39.9169 39.9325 39.9481 40.103 40.2578 40.4125
40.5677 40.7224 40.8776 41.0325 41.1875 41.3425 41.4977 41.6529 41.8083 41.9635
42.1187 42.2741 42.2975 42.3209 42.3444 42.3679 42.3921 42.4462 42.5003 42.5544
42.6084 42.6625 42.7403 42.818 42.8957 42.9733 43.051 43.1288 43.2064 43.2841
43.3618 43.4397 43.511 43.5822 43.6534 43.7245 43.7949 43.8017 43.8086 43.8154
43.8222 43.829 43.9067 43.9845 44.0623 44.1402 44.2181 44.2962 44.3741 44.4519
44.5296 44.6074 44.6854 44.7632 44.8409 44.9187 44.9967 45.0747 45.1526 45.2304
45.3083 45.3864 45.4646 45.5427 45.6207 45.6987 45.7768 45.7808 45.7849 45.7889
45.793 45.797 45.871 45.9451 46.0191 46.0931 46.1672 46.2455 46.3235 46.4015
46.4793 46.5573 46.6355 46.7135 46.7913 46.8691 46.9471 47.0254 47.1035 47.1813
47.2593 47.3375 47.4159 47.4941 47.5722 47.6504 47.7287 47.7507 47.7727 47.7947
47.8167 47.8387 47.9735 48.1083 48.2433 48.3782 48.5129 48.6708 48.8275 48.9843
49.1411 49.2986 49.4571 49.6147 49.7715 49.9284 50.0865 50.2456 50.4037 50.5609
50.7182 50.8769 51.0364 51.1943 51.3517 51.5093 51.6673 51.7403 51.8129 51.8855
51.9581 52.0281 52.035 52.0418 52.0486 52.0554 52.0622 52.1412 52.2202 52.2992
52.3783 52.4573 52.5363 52.6153 52.6944 52.7734 52.8525 52.8834 52.9142 52.9451
52.976 53.0067 53.0549 53.1031 53.1513 53.1996 53.2478 53.3269 53.406 53.4851
53.5642 53.6433 53.7225 53.8016 53.8807 53.9599 54.039 54.0598 54.0806 54.1014
54.1222 54.1429 54.2014 54.2598 54.3183 54.3768 54.4352 54.5146 54.5938 54.6731