/*--------------------------------*- C++ -*----------------------------------*\
  =========                 |
  \\      /  F ield         | OpenFOAM: The Open Source CFD Toolbox
   \\    /   O peration     | Website:  https://openfoam.org
    \\  /    A nd           | Version:  10
     \\/     M anipulation  |
\*---------------------------------------------------------------------------*/
FoamFile
{
    format      ascii;
    class       surfaceScalarField;
    location    "0";
    object      phi;
}
// * * * * * * * * * * * * * * * * * * * * * * * * * * * * * * * * * * * * * //

dimensions      [0 3 -1 0 0 0 0];

internalField   nonuniform List<scalar> 
25516
(
34.1899
6.20603
0.000376875
-1.35752
-1.39683
33.1762
10.5834
0.000314967
-2.13703
-2.64762
8.21052
19.2281
0.000294098
8.46639
8.21038
8.46598
-4.26978
-5.4325
8.30064
0.000107396
2.15759
2.20241
2.15789
2.20236
34.9725
6.47787
0.000322653
34.7698
10.7862
0.000268847
8.97722
18.4838
0.000225378
8.78033
8.97694
8.77964
-7.51471
9.49756
6.99439
0.000105293
-2.76556
-2.70101
3.01165
2.4549
4.03693e-05
-1.93934e-05
-3.3023
2.766
0.537992
2.38112e-05
-0.00170063
35.7356
0.000259327
36.1194
0.000223257
38.3954
0.000218174
10.9017
0.000300775
-6.02298
-7.01391
-6.02222
-7.01378
10.4012
10.9013
10.4002
-7.06615
11.9286
6.03927
0.000112355
-3.19179
-9.12581e-05
-12.2883
12.2778
3.20227
0.000111168
-0.312156
0.000173797
-0.182311
-0.312188
-0.182282
-12.5223
46.8158
0.000381242
-4.81951
-4.32134
-4.81875
-4.32139
0.000505622
-2.92994
-2.37937
-2.92957
-2.37941
-0.0184886
2.16495
0.00976555
5.49228e-05
-0.0765897
-2.05217
1.97178
0.156983
3.75551e-05
-2.8552e-05
-2.21142
1.95348
0.273986
2.64368e-05
-0.0160436
-1.83249e-05
-1.79948
1.7472
0.0758791
1.77912e-05
-0.0235956
7.65296
1.56208
0.000275088
-8.56367
8.59636
-0.431597
0.000210499
-0.173079
-8.5766
8.51725
0.23247
0.000172916
-0.923628
-8.50216
8.5611
0.864718
0.000127917
-1.10868
-0.000113714
-8.79001
8.67118
1.22752
9.7204e-05
-1.34628
-8.26961e-05
-8.35723
7.91091
1.7926
7.43776e-05
-0.791844
-7.80073e-05
7.26027
3.82666
7.16334e-05
-0.89881
-0.791791
-0.89877
-7.70572
-2.47909e-05
-2.0817
-1.89515
2.12434
1.8525
2.87119e-05
35.0118
-2.10632
0.000554245
-3.04891
3.86003
-3.04884
3.86003
34.833
-0.473952
0.000525835
0.265053
0.0615446
0.265153
0.0614538
34.8212
1.54035
0.000421215
-0.277254
-0.486832
-0.277174
-0.486913
34.8817
3.69328
0.000323951
-0.867891
-1.00891
-0.867764
-1.00898
34.1849
6.20514
0.000246787
-1.35735
-1.39681
-1.35724
-1.39686
33.1724
10.5811
0.000208537
-2.13679
-2.6475
-2.13667
-2.64751
8.21031
19.2239
0.000200645
8.46591
8.21019
8.46577
-4.26949
-5.43237
-4.26938
-5.43235
-9.0605e-05
-8.81012
8.30034
7.95651e-05
2.15756
2.20239
2.1578
2.20235
35.323
-2.33961
0.000543384
35.2799
-0.430507
0.000446774
35.2724
1.54815
0.000358363
35.2401
3.72575
0.000272817
34.9687
6.47668
0.000212246
34.7658
10.784
0.000182355
8.97672
18.4787
0.000166297
8.77911
8.97651
8.77879
-7.51428
-9.32763e-05
9.49717
6.99384
8.16628e-05
-2.44448e-05
-2.76547
-2.70101
3.01155
2.45492
3.38012e-05
-2.56249e-05
-3.3023
2.76601
0.537992
2.39897e-05
-0.00169845
35.6683
0.000442469
35.6657
0.000347653
35.6818
0.000280283
35.7037
0.000215194
35.7327
0.000171713
36.1163
0.00015405
38.3901
0.00015934
10.901
0.000217372
-6.02186
-7.01345
-6.02158
-7.01318
10.3998
10.9006
10.3992
-7.06578
-9.98646e-05
11.9277
6.03904
9.69836e-05
-3.1916
-0.000120764
-12.2875
12.2773
3.20186
0.000120409
-0.312044
-0.000186381
0.000181157
-0.182319
-0.311975
-0.182283
-12.5217
46.8103
0.000323755
-4.81852
-4.32121
-4.81808
-4.32128
0.000463227
-2.92933
-2.37942
-2.92893
-2.37966
-4.97594e-05
-0.27646
1.8042
0.520567
3.92145e-05
-4.01826e-05
0.0545865
-2.08915
2.10799
-0.0734258
3.49705e-05
-3.37417e-05
-0.0184727
-2.1562
2.16493
0.00974532
3.07339e-05
-2.44763e-05
-0.0765866
-2.05215
1.97176
0.156978
2.23285e-05
-1.82986e-05
-2.21141
1.95346
0.273998
1.65421e-05
-0.0160435
-1.32665e-05
-1.79948
1.7472
0.0758779
1.28141e-05
-0.0235958
-0.767388
-0.000195094
7.65267
1.5621
0.000143591
0.39904
-0.000147353
-8.5634
8.5961
-0.431701
0.000107582
-0.173028
-0.000122876
-8.57631
8.517
0.232378
9.0594e-05
-0.923599
-9.45919e-05
-8.50185
8.56084
0.864635
7.22437e-05
-1.10864
-7.31767e-05
-8.78972
8.67094
1.22743
5.89374e-05
-1.34623
-5.6184e-05
-8.357
7.91076
1.79248
4.6988e-05
-0.791818
-5.4117e-05
7.26017
3.82659
4.536e-05
-0.898805
-0.791776
-0.898769
-7.70558
-1.63715e-05
-2.0817
-1.89514
2.12434
1.8525
2.00786e-05
35.009
-2.10665
0.000276054
-3.04882
3.86025
-3.0488
3.86024
34.8302
-0.474463
0.000258629
0.265276
0.0614774
0.26534
0.0614614
34.8184
1.53994
0.000206622
-0.277048
-0.48691
-0.276993
-0.486933
34.8785
3.69327
0.000167647
-0.867656
-1.00898
-0.867613
-1.009
34.1824
6.20405
0.00013235
-1.35713
-1.39681
-1.35707
-1.39683
33.1707
10.5798
0.000114996
-2.13654
-2.64747
-2.13649
-2.64748
8.21017
19.2222
0.000116064
8.46566
8.21015
8.46557
-4.26921
-5.43228
-4.26916
-5.43227
-6.16449e-05
-8.81005
8.30019
5.00396e-05
2.15753
2.20239
2.15777
2.20235
35.3208
-2.34009
0.000247025
35.2774
-0.430826
0.000219408
35.2699
1.54767
0.000176285
35.2379
3.72541
0.000139825
34.9661
6.47588
0.000113212
34.7633
10.7827
9.9819e-05
8.97637
18.476
9.84462e-05
8.77857
8.97637
8.77819
-7.51411
-6.20014e-05
9.49701
6.99348
5.04639e-05
-1.9159e-05
-2.76543
-2.70097
3.01153
2.45486
2.5753e-05
-2.32489e-05
-3.30231
2.76602
0.537989
2.14783e-05
-0.00170006
35.6667
0.000216038
35.6644
0.000168129
35.6801
0.000135851
35.702
0.000107708
35.731
8.95723e-05
36.1145
8.29597e-05
38.3874
9.46615e-05
10.9005
0.000145768
-6.02116
-7.01317
-6.02085
-7.01319
10.3989
10.9003
10.3988
-7.06599
-8.92131e-05
11.9278
6.03869
7.66377e-05
-3.19164
-0.000111484
-12.2871
12.2771
3.20169
9.4954e-05
46.8074
0.000234709
-4.81785
-4.32131
-4.81772
-4.32133
0.000340461
-2.92893
-2.37962
-2.92893
-2.37947
-2.50108e-05
-0.276469
1.80419
0.52057
1.86718e-05
-1.95715e-05
0.0545904
-2.08913
2.10798
-0.0734319
1.66047e-05
-1.72036e-05
-0.0184704
-2.1562
2.16492
0.00974221
1.51769e-05
-1.25243e-05
-0.0765841
-2.05213
1.97175
0.156967
1.13447e-05
-1.00063e-05
-2.21141
1.95346
0.273996
8.57303e-06
-0.0160425
-7.35946e-06
-1.79948
1.7472
0.0758768
6.7982e-06
-0.0235953
-0.767409
-9.72335e-05
7.65253
1.56212
6.21248e-05
0.399082
-7.12619e-05
-8.56328
8.59599
-0.431765
4.50435e-05
-0.173
-6.22907e-05
-8.57617
8.51684
0.232342
4.2207e-05
-0.923576
-4.89791e-05
-8.5017
8.56072
0.864575
3.22904e-05
-1.10861
-3.96465e-05
-8.78959
8.67083
1.22739
2.4814e-05
-1.3462
-3.12097e-05
-8.35691
7.91067
1.79245
2.04626e-05
-0.791806
-3.04776e-05
7.26014
3.82652
1.74961e-05
-0.898799
-0.791768
-0.898772
-7.70551
-8.54699e-06
-2.0817
-1.89514
2.12434
1.8525
1.30482e-05
35.0076
-2.1072
9.76506e-05
-3.0488
3.86036
-3.04878
3.8604
34.8288
-0.474716
8.59109e-05
0.265386
0.0614766
0.265446
0.0614312
34.8169
1.53975
6.40581e-05
-0.276938
-0.486933
-0.276917
-0.486978
34.877
3.6931
4.63133e-05
-0.867556
-1.00899
-0.86752
-1.00901
34.1811
6.20362
3.49213e-05
-1.35703
-1.39681
-1.35699
-1.39681
33.1695
10.5794
2.71147e-05
-2.13642
-2.64744
-2.13639
-2.64745
8.21012
19.2212
2.99247e-05
8.46548
8.21012
8.46535
-4.26911
-5.43222
-4.2691
-5.43222
-3.56151e-05
-8.81001
8.30012
2.60882e-05
2.15753
2.20234
2.15781
2.20235
35.3193
-2.34013
9.80325e-05
35.2759
-0.431146
6.98344e-05
35.2686
1.54712
5.03423e-05
35.2366
3.72522
3.41752e-05
34.9646
6.47574
2.54785e-05
34.7626
10.7815
2.00996e-05
8.97637
18.4748
2.64227e-05
8.77815
8.97652
8.77799
-7.51389
-3.59283e-05
9.49687
6.9934
2.50397e-05
-1.2132e-05
-2.76543
-2.70097
3.01153
2.45486
1.89477e-05
-1.73459e-05
-3.30232
2.76603
0.537991
1.6017e-05
-0.00170095
35.6657
7.66227e-05
35.6637
4.79159e-05
35.6789
3.22995e-05
35.7007
1.99711e-05
35.73
1.36578e-05
36.1132
1.19482e-05
38.3861
2.20241e-05
10.9003
4.82461e-05
-6.02081
-7.01316
-6.0208
-7.01319
10.3985
10.9005
10.3982
-7.06567
-5.48769e-05
11.9274
6.03862
3.73375e-05
-3.19144
-7.95651e-05
-12.2869
12.277
3.20146
5.73978e-05
46.8055
0.000102436
-4.81752
-4.32128
-4.81749
-4.32107
0.000162653
-2.92895
-2.37945
-2.92893
-2.37961
-8.80298e-06
-0.276471
1.80419
0.520574
4.06592e-06
-6.65022e-06
0.0545925
-2.08913
2.10798
-0.0734352
4.79155e-06
-5.80689e-06
-0.018471
-2.15619
2.16492
0.00974186
5.09693e-06
-3.94623e-06
-0.0765835
-2.05213
1.97175
0.156966
3.22932e-06
-2.66275e-06
-2.21141
1.95345
0.273994
1.43278e-06
-0.0160411
-1.67888e-06
-1.79948
1.74719
0.0758768
1.17411e-06
-0.0235952
-0.767407
-3.48159e-05
7.65244
1.56214
1.05613e-05
0.399121
-2.33929e-05
-8.56323
8.59593
-0.431797
5.37424e-06
-0.172979
-1.99816e-05
-8.57612
8.51679
0.232321
3.04628e-06
-0.923553
-1.43471e-05
-8.50164
8.56064
0.864563
3.51252e-07
-1.1086
-1.01121e-05
-8.78954
8.67079
1.22736
-2.79651e-06
-1.3462
-7.12262e-06
-8.35686
7.91066
1.79242
-5.19396e-06
-0.791809
-5.63294e-06
7.26013
3.82653
-6.52664e-06
-0.898804
-0.791771
-0.898769
-7.7055
-2.58981e-06
-2.08168
-1.89515
2.12434
1.85249
1.48591e-06
35.007
-2.10729
-5.25801e-05
-3.04879
3.86045
-3.0488
3.86046
34.8282
-0.474821
-5.34479e-05
0.265465
0.061438
0.265463
0.0614267
34.8163
1.53966
-5.59774e-05
-0.276888
-0.486963
-0.276875
-0.486962
34.8767
3.69273
-5.95677e-05
-0.867484
-1.00902
-0.867488
-1.00902
34.1805
6.20384
-6.25718e-05
-1.35696
-1.39681
-1.35696
-1.39681
33.1691
10.5791
-6.36089e-05
-2.13637
-2.64745
-2.13635
-2.64744
8.21012
19.2208
-6.22727e-05
8.46536
8.21011
8.46539
-4.26908
-5.43223
-4.26903
-5.43221
-1.06483e-05
-8.80999
8.30011
-4.51782e-06
2.15752
2.20234
2.15781
2.20235
35.3186
-2.34025
-5.21271e-05
35.2752
-0.431285
-5.3472e-05
35.2677
1.54731
-5.593e-05
35.2357
3.72483
-5.90486e-05
34.964
6.47565
-6.16995e-05
34.7623
10.7808
-6.2987e-05
8.97652
18.4744
-6.21769e-05
8.77785
8.97637
8.778
-7.51389
-9.96759e-06
9.49687
6.99355
-3.26421e-06
-4.19779e-06
-2.76543
-2.70097
3.01154
2.45487
9.83914e-06
-7.23859e-06
-3.30232
2.76603
0.53799
6.10658e-06
-0.00169938
35.6654
-5.1906e-05
35.663
-5.31421e-05
35.6785
-5.57256e-05
35.7004
-5.83439e-05
35.7296
-6.07483e-05
36.1126
-6.18939e-05
38.3855
-6.1434e-05
10.9005
-6.13227e-05
-6.02081
-7.01305
-6.02081
-7.01307
10.3981
10.9005
10.3981
-7.06544
-1.63782e-05
11.927
6.039
3.47849e-06
-3.19142
-3.14384e-05
-12.2868
12.2768
3.20144
9.89303e-06
46.805
-5.61865e-05
-4.81748
-4.32108
-4.81747
-4.32126
-2.92871
-2.37963
-2.92854
-2.37963
3.22584e-06
-0.276472
1.80419
0.520575
-7.23178e-06
3.30055e-06
0.0545928
-2.08913
2.10798
-0.0734356
-4.96571e-06
3.44274e-06
-0.0184714
-2.15619
2.16491
0.00974187
-3.64728e-06
3.40894e-06
-0.0765833
-2.05213
1.97175
0.156965
-4.02692e-06
3.66896e-06
-2.2114
1.95345
0.273994
-4.83982e-06
-0.0160411
3.50345e-06
-1.79948
1.74719
0.0758767
-3.92504e-06
-0.0235952
-0.767412
1.27612e-05
7.65242
1.56215
-3.64832e-05
0.399123
1.32963e-05
-8.56322
8.59591
-0.431799
-3.17273e-05
-0.172977
1.36511e-05
-8.57612
8.51679
0.232319
-3.0574e-05
-0.923538
1.46217e-05
-8.50165
8.56064
0.864563
-2.95716e-05
-1.1086
1.58857e-05
-8.78952
8.67078
1.22736
-2.90566e-05
-1.34619
1.57811e-05
-8.35686
7.91064
1.79242
-2.68977e-05
-0.791804
1.47568e-05
7.26013
3.8265
-2.62452e-05
-0.898797
-0.791769
-0.898764
-7.70548
4.92603e-06
-2.0817
-1.89514
2.12434
1.8525
-6.78105e-07
35.007
-2.10728
-3.04879
3.86045
-3.04878
3.86044
34.8281
-0.47482
0.265478
0.0614266
0.265466
0.0614522
34.8163
1.53966
-0.000176818
-0.276875
-0.486962
-0.276903
-0.486949
34.8767
3.69273
-0.000167388
-0.867488
-1.00902
-0.867485
-1.00902
34.1805
6.20384
-0.000162927
-1.35696
-1.39681
-1.35696
-1.39681
33.1691
10.5791
-0.000158971
-2.13635
-2.64744
-2.13637
-2.64745
8.21011
19.2208
-0.000161376
8.46539
8.21012
8.46536
-4.26903
-5.43221
-4.26908
-5.43223
1.57799e-05
-8.80999
8.30011
-2.69495e-05
2.15752
2.20234
2.1578
2.20235
35.3186
-2.34025
35.2752
-0.431283
35.2677
1.54732
-0.000162597
35.2357
3.72484
-0.000154002
34.9639
6.47566
-0.000151304
34.7623
10.7808
-0.000149761
8.97637
18.4744
-0.000155711
8.778
8.97652
8.77785
-7.51395
1.58295e-05
9.49694
6.9934
-2.74465e-05
4.2716e-06
-2.76543
-2.70098
3.01154
2.45487
1.09461e-06
35.6654
35.6627
35.6785
35.7004
35.7296
36.1126
38.3856
10.9005
-6.02081
-7.01307
-6.02081
-7.01305
10.3981
10.9005
10.3981
-7.06544
1.55684e-05
11.927
6.039
-3.20839e-05
-4.81747
-4.32126
-4.81749
-4.32108
1.52062e-05
-0.27647
1.80419
0.520573
1.31241e-05
0.0545925
-2.08913
2.10798
-0.0734351
-1.52302e-05
1.27273e-05
-0.0184722
-2.15619
2.16492
0.00974302
-1.32636e-05
1.09141e-05
-0.0765838
-2.05213
1.97175
0.156966
-1.194e-05
1.0125e-05
-2.21141
1.95345
0.273995
-1.16287e-05
-0.0160418
8.96431e-06
-1.79948
1.74719
0.075877
-9.70507e-06
-0.0235952
0.399098
4.96477e-05
8.59596
-0.431784
-0.172986
4.75641e-05
-8.57613
8.51681
0.232334
-7.00676e-05
-0.923559
4.41197e-05
-8.50167
8.56066
0.864588
-6.27181e-05
-1.10859
4.26829e-05
-8.78957
8.67079
1.22738
-5.8261e-05
-1.34621
3.99028e-05
-8.35688
7.91066
1.79244
-5.50839e-05
-0.791809
3.97987e-05
7.26014
3.82654
-5.50576e-05
-0.898805
-0.79178
-0.89877
-7.7055
1.2243e-05
-2.08168
-1.89515
2.12434
1.85249
-1.28019e-05
34.8169
1.53976
-0.276931
-0.486966
-0.276927
-0.486933
34.877
3.69311
-0.000293998
-0.867521
-1.00903
-0.867558
-1.00901
34.1811
6.20364
-0.000268827
-1.35698
-1.39682
-1.35702
-1.39681
33.1695
10.5794
-0.000256109
-2.1364
-2.64745
-2.13642
-2.64744
8.21012
19.2212
-0.000260763
8.46535
8.21013
8.46548
-4.2691
-5.43222
-4.26912
-5.43222
4.31986e-05
-8.81
8.30011
-5.90279e-05
2.15753
2.20234
2.15781
2.20235
35.2683
35.2366
-0.000263977
34.9646
-0.000246297
34.7626
-0.000238946
8.97652
-0.000240773
8.778
8.97637
8.77815
-7.51389
4.24511e-05
6.9934
-5.80265e-05
1.97883e-05
-0.076585
1.97176
0.156961
-2.16438e-05
1.76418e-05
-2.21141
1.95345
0.273996
-1.97105e-05
-0.0160417
1.51707e-05
-1.79948
1.74719
0.0758778
-1.61115e-05
-0.0235956
-0.923562
7.98523e-05
8.56075
0.864614
-0.000104006
-1.10862
7.40981e-05
-8.78963
8.67085
1.22742
-9.52411e-05
-1.34622
6.65248e-05
-8.35694
7.9107
1.79247
-8.42821e-05
-0.791816
6.58629e-05
7.26015
3.82658
-8.22822e-05
-0.898814
-0.791783
-0.898773
-7.70553
2.02585e-05
-2.08168
-1.89515
2.12434
1.85249
-2.15966e-05
34.8785
3.69329
-0.867618
-1.00903
-0.867674
-1.009
34.1824
6.20408
-0.000399456
-1.35706
-1.39683
-1.35712
-1.3968
33.1704
10.5801
-0.000368532
-2.13651
-2.64748
-2.13657
-2.64747
8.21015
19.2219
-0.00036506
8.46557
8.21017
8.46566
-4.26917
-5.43227
-4.26923
-5.43228
7.2819e-05
-8.81003
8.30016
-9.03786e-05
2.15754
2.20233
2.15781
2.20234
35.2378
34.9658
-0.000359675
34.7635
-0.00033835
8.97637
-0.000329167
8.77819
8.97637
8.77856
-7.51398
7.23088e-05
6.99356
-8.87627e-05
2.76296e-05
1.95346
0.274
-3.01109e-05
-0.016044
2.20756e-05
-1.79948
1.7472
0.0758801
-2.37401e-05
-0.0235966
-1.10865
0.000111749
8.67101
1.22749
-0.00013982
-1.34628
9.61108e-05
-8.35707
7.91081
1.79256
-0.000119084
-0.791825
9.32933e-05
7.2602
3.82666
-0.00011792
-0.898813
-0.791801
-0.898779
-7.70562
2.94868e-05
-2.08169
-1.89514
2.12434
1.8525
-2.7598e-05
34.1849
6.20491
-1.35725
-1.39684
-1.35735
-1.3968
33.1721
10.5814
-0.000507971
-2.13668
-2.64753
-2.1368
-2.64752
8.21019
19.2237
-0.000499186
8.46577
8.21031
8.46591
-4.2694
-5.43235
-4.26949
-5.43238
0.000104571
-8.81009
8.30024
-0.000127106
2.15755
2.20239
2.15778
2.20235
34.968
34.7658
8.97651
-0.000424417
8.77878
8.97672
8.77911
-7.51417
0.000104331
6.9937
-0.000127988
3.04285e-05
1.7472
0.0758836
-3.32688e-05
-0.0235979
-1.34637
0.000131974
7.91107
1.79274
-0.000158947
-0.791848
0.000127665
7.26034
3.82683
-0.000164728
-0.898831
-0.791827
-0.898789
-7.70584
4.12826e-05
-2.08169
-1.89515
2.12434
1.8525
-3.93751e-05
33.176
-2.13707
-2.64762
-2.13735
-2.64765
8.21039
19.2279
-0.000698965
8.46598
8.21053
8.4664
-4.26978
-5.43251
-4.27007
-5.43265
0.000144872
-8.81022
8.30051
-0.000170821
2.15758
2.20239
2.1578
2.20235
8.97693
-0.000570764
8.77963
8.97722
8.78032
-7.51442
0.000146514
6.99398
-0.000165513
-0.791929
0.000183321
7.26064
3.82731
-0.000252781
-0.898855
-0.791929
-0.898806
6.07439e-05
-2.0817
-1.89515
2.12434
1.85252
-6.34749e-05
8.21075
19.2358
-0.00113903
8.46692
8.21111
8.46778
-4.2707
-5.43303
-4.27129
-5.43331
0.000207474
-8.81054
8.30092
-0.000271456
2.15771
2.20242
2.15791
2.20238
8.97757
-0.000871668
8.78128
8.97811
8.78283
-7.5152
0.000199484
9.49812
6.99472
-0.000260974
-2.76565
-2.70101
3.01176
2.45489
-3.65761e-05
-0.792071
0.000287907
7.26145
3.82843
-0.000441325
-0.898896
-0.792137
-0.898855
0.000106319
-2.08171
-1.89518
2.12434
1.85256
-0.000125586
8.21164
19.2506
8.46878
8.2126
8.47103
-4.27281
-5.43416
-4.27436
-5.43527
0.000360193
-8.81152
8.30229
-0.000501085
2.15796
2.20249
2.15811
2.20246
8.9794
8.78436
8.98068
8.78672
-7.51682
0.000350759
9.50006
6.99629
-0.000475429
6.11905e-05
-2.76563
-2.70125
3.01175
2.45513
-6.14076e-05
-0.792469
0.000547049
7.26423
3.83082
-0.898991
-0.79274
-0.89895
0.000246088
-2.08174
-1.8953
2.12438
1.85273
-0.000323164
0.000752302
-8.81522
8.30657
2.15907
2.20275
2.15889
2.20276
-7.52131
0.00072927
9.50559
6.99893
0.000108087
-2.76636
-2.70174
3.01259
2.4555
-0.000101854
-1.35147e-05
2.766
0.537991
-0.0017014
9.25592e-05
-0.604673
-0.707524
-0.707528
-0.604669
3.19213
3.14595
2.95219
2.95229
3.14585
2.22314e-05
0.735595
-2.37069e-06
-0.777236
-3.15882
-3.14517e-05
1.95348
0.273987
-0.0160437
1.79948
1.94795e-05
-2.05642e-05
-1.82919
0.0482253
-0.0185177
8.79788
0.000121255
-0.144049
-0.322801
-0.322806
-0.144047
1.1087
8.29182
9.85732e-05
-0.124654
-0.0906533
-0.0906546
-0.124641
0.936671
-1.69579e-05
1.7472
0.0758706
-0.0235942
9.89035e-06
-1.01277e-05
-1.49028
1.4576
0.0326837
7.66699
8.43646e-05
-0.212054
-0.148696
-0.148682
-0.212058
1.34633
1.83384
8.07124e-05
-0.344183
-0.744696
-0.744707
-0.34418
1.83388
1.92061
1.92063
2.33582
2.09776e-05
0.791851
-4.29932e-05
-0.78514
1.82715
2.12736
2.16852e-05
1.44597
-2.26112e-05
-1.89097
-1.68235
2.08169
1.36052e-05
-1.18996e-05
0.0456715
-1.89515
-2.37457e-05
2.12434
1.8525
8.81022
9.18022e-05
-7.46244
-3.30425
-2.03252
-2.03259
-3.30419
2.85042
1.81248
1.8125
2.85038
-3.57822
3.46688
2.9896e-05
0.11133
9.25234
0.000104711
0.000110657
2.5566
-2.56344
-2.67541
-2.56362
-2.67548
2.50998
2.55643
2.51
9.59729
8.30049
2.15758
2.20239
2.20235
2.1578
1.63111e-05
-9.19618e-06
-3.57822
3.46688
0.111332
9.25209
9.17568e-05
7.5144
2.55653
9.41353e-05
-2.56343
-2.67539
-2.67548
-2.56351
2.55644
2.50997
2.50999
9.59699
-5.11974
4.91078
4.30442e-05
2.76547
3.0787e-05
-3.20305e-05
-5.11972
4.91078
-4.51408
1.26507
2.47807e-05
-0.0532793
12.3409
0.000107458
-11.236
-2.00018
-2.08547
-2.00018
-2.0853
0.000108882
12.7634
-1.50133
-1.21839
-1.50144
-1.2185
5.01716
-2.70101
-1.23711e-05
3.01155
2.45492
3.3023
2.70975e-05
-3.47495e-05
-4.51408
1.26506
-0.0532742
12.3407
9.6969e-05
-11.2355
7.06579
-2.00007
-2.08548
-2.08531
-2.00007
12.7631
0.000106437
-1.50131
-1.2185
-1.2185
-1.50134
5.01717
0.000109509
-0.604687
-0.707525
-0.604669
-0.707513
3.14573
2.95222
3.14574
2.95233
3.20045
0.735472
-0.777232
-3.15871
4.33031e-05
-2.70129e-05
2.766
0.53799
-0.00169725
0.000121204
-0.604794
-0.707423
-0.70749
-0.604784
3.19149
3.14584
2.95221
2.95232
3.14574
3.20024
4.00319e-05
0.735594
-1.70499e-05
-0.777137
-3.15873
-0.363392
3.25172
6.82677e-06
4.46935e-05
0.312042
-8.11751e-05
-0.36339
3.25163
0.276456
4.41907e-05
-5.19671e-05
1.63413
-0.0811056
1.8187
-0.086563
3.6935e-05
-4.42232e-05
-1.77633
0.0441975
-0.0545839
3.54208e-05
-4.16187e-05
1.84445
0.028846
1.87703
0.0182203
3.08917e-05
-3.58814e-05
-1.86005
-0.0351868
1.88368
4.76695e-05
-0.0251237
1.82875
0.0192826
-1.85184
3.68293e-05
0.00380911
0.018475
2.97877e-05
-3.37438e-05
1.88368
-0.0251201
1.82874
0.0192799
2.41883e-05
-2.75867e-05
-1.85183
0.00381027
1.75004
3.30307e-05
0.002124
0.0765878
2.17431e-05
-2.46088e-05
1.75003
0.00212469
-5.9396e-05
1.8042
0.520566
2.08915
4.19249e-05
-5.05919e-05
-2.04713
-0.128567
7.99365
0.000192665
0.767381
0.738241
-0.933398
0.738247
-0.933389
8.42669
0.000164352
0.178632
0.175016
0.175008
0.178625
-1.14025
-4.71537e-05
2.10799
-0.0734214
2.15621
3.52579e-05
-4.07901e-05
-2.13129
-0.00669721
8.52026
0.000153607
0.0636324
0.0891107
0.0891152
0.0636385
-0.39901
8.53169
0.000142494
0.0319151
0.0154268
0.0154221
0.0319191
-0.10605
-2.10618
0.0732951
4.13129e-05
8.44072
0.000175668
-0.0302249
-0.0107437
-0.0302198
-0.0107441
0.000149199
8.3005
-0.0582667
-0.118681
-0.0582666
-0.118686
0.494166
-3.73625e-05
2.16493
0.00975621
2.05216
2.71414e-05
-3.107e-05
-2.10617
0.0732981
8.44057
0.000127491
-0.0302226
-0.0107252
-0.0107455
-0.0302059
0.17306
8.30038
0.000110768
-0.0582648
-0.118683
-0.118697
-0.0582448
0.494125
-2.84904
0.592049
3.03489e-05
0.045577
8.3969
0.000127217
-0.319723
-0.190275
-0.319715
-0.190281
0.000114207
8.97269
-0.500002
-0.456287
-0.500004
-0.456302
1.33684
-2.75655e-05
1.97177
0.15698
2.21141
2.11745e-05
-2.5712e-05
-2.84902
0.592039
0.0455766
8.39675
9.59762e-05
-0.319722
-0.190266
-0.190268
-0.31971
0.923625
8.97258
8.82599e-05
-0.500003
-0.456289
-0.456302
-0.500001
1.33679
-1.8292
0.0482372
1.87702e-05
-0.0185227
8.79772
0.000100222
-0.144062
-0.322791
-0.144054
-0.322785
8.31251e-05
8.29169
-0.124614
-0.0906658
-0.124621
-0.0906748
0.936625
-2.06584e-05
1.95346
0.273999
-0.0160433
1.79948
1.41353e-05
-1.54368e-05
-1.82919
0.0482306
-0.0185229
8.7976
7.81858e-05
-0.144057
-0.322784
-0.322781
-0.144047
1.10867
8.2916
6.61112e-05
-0.124629
-0.0906566
-0.0906613
-0.124637
0.936601
-1.49028
1.45759
9.86558e-06
0.0326847
7.66691
7.28298e-05
-0.212054
-0.1487
-0.212051
-0.148693
6.965e-05
1.83383
-0.344158
-0.744699
-0.344162
-0.74471
1.92061
1.83385
1.92062
2.33573
-1.4217e-05
1.7472
0.075873
-0.0235966
6.49463e-06
-6.51246e-06
-1.49028
1.45759
0.032688
7.66685
5.79878e-05
-0.212055
-0.148694
-0.148694
-0.212051
1.34626
1.83382
5.53858e-05
-0.344156
-0.744704
-0.74471
-0.344156
1.83385
1.9206
1.92062
2.3357
-0.785138
1.82715
1.2041e-06
2.12736
1.44597
-1.89098
-1.68235
3.30328e-05
1.44133e-05
0.791826
-3.37771e-05
-0.785129
1.82714
2.12736
1.34902e-05
1.44596
-1.33529e-05
-1.89096
-1.68235
1.86312e-05
0.0456688
2.08169
8.77065e-06
-7.30229e-06
0.0456743
8.12533e-05
-7.46237
-3.30425
-2.03251
-3.30419
-2.03256
2.85042
1.81248
2.85038
1.81249
-1.89514
-1.5711e-05
2.12434
1.8525
8.81008
6.3526e-05
-7.46233
-3.30425
-2.0325
-2.03256
-3.30419
2.85043
1.81247
1.81249
2.85038
-3.57822
3.46688
2.47242e-05
0.111331
9.25198
8.06223e-05
8.00233e-05
2.55653
-2.56339
-2.67539
-2.5635
-2.67547
2.50997
2.55645
2.50998
9.59683
8.30022
2.15755
2.20239
2.20235
2.15778
1.18058e-05
-4.00681e-06
-3.57822
3.46688
0.111333
9.25187
6.17843e-05
7.51415
2.55648
6.68121e-05
-2.56339
-2.67537
-2.67546
-2.56349
2.55645
2.50996
2.50999
9.59671
-5.11973
4.91078
3.2176e-05
2.76542
2.44692e-05
-2.62594e-05
-5.11972
4.91078
-4.51408
1.26506
2.1822e-05
-0.0532728
12.3404
9.731e-05
-11.2352
-2.00013
-2.08547
-2.00008
-2.08524
0.000108269
12.763
-1.50133
-1.2185
-1.50134
-1.21851
5.01698
-2.70105
-9.64852e-06
3.01153
2.45494
3.3023
2.5079e-05
-3.20481e-05
-4.51409
1.26506
-0.0532747
12.3399
8.70293e-05
-11.2352
7.06597
-2.00014
-2.08529
-2.08524
-2.00007
12.7631
9.62242e-05
-1.50133
-1.2185
-1.21851
-1.50134
5.01656
0.000118305
-0.604788
-0.707423
-0.604779
-0.707397
3.14585
2.95212
3.14575
2.95212
3.20025
0.735613
-0.77714
-3.15873
4.90782e-05
-2.50306e-05
2.76602
0.537989
-0.00169967
0.000110758
-0.604787
-0.707519
-0.707408
-0.604672
3.19174
3.14586
2.95198
2.95212
3.14576
3.20037
3.46087e-05
0.735626
-2.61754e-05
-0.777258
-3.15875
-0.363394
3.25164
8.93571e-06
0.312049
-8.46383e-05
-0.363397
3.25176
1.63412
3.53227e-05
-0.0811009
1.8187
-0.0865663
-1.77633
3.12764e-05
0.0441988
0.27647
2.23813e-05
-2.77634e-05
1.63412
-0.0811095
1.8187
-0.08657
1.78991e-05
-2.19402e-05
-1.77632
0.0442004
1.84445
3.03603e-05
0.0288472
1.87702
0.018219
-1.86005
2.64147e-05
-0.0351861
-0.0545887
1.73014e-05
-2.05115e-05
1.84444
0.0288478
1.87702
0.0182174
1.54942e-05
-1.88467e-05
-1.86005
-0.0351854
1.88367
2.58947e-05
-0.0251178
1.82874
0.0192786
-1.85183
2.15124e-05
0.00381087
0.0184716
1.52003e-05
-1.7698e-05
1.88367
-0.0251183
1.82874
0.0192774
1.24223e-05
-1.43536e-05
-1.85182
0.00381127
1.75003
1.95647e-05
0.00212527
0.0765856
1.12208e-05
-1.28886e-05
1.75003
0.00212482
-2.04713
-0.128573
3.54226e-05
7.99353
0.000138261
0.738252
-0.933395
0.738255
-0.933394
0.000118296
8.42661
0.178647
0.175025
0.178636
0.175017
-1.14035
-3.14198e-05
1.8042
0.52057
2.08914
2.03268e-05
-2.52273e-05
-2.04713
-0.128579
7.99347
9.63622e-05
0.767414
0.73825
-0.933411
0.738248
-0.933407
8.42656
7.93961e-05
0.178659
0.175019
0.175013
0.178656
-1.14039
-2.13128
-0.00669892
3.01424e-05
8.52018
0.000110233
0.0636265
0.0891191
0.0636356
0.0891298
0.000102143
8.5316
0.0319245
0.0154298
0.0319232
0.0154376
-0.106099
-2.31738e-05
2.10798
-0.0734224
2.1562
1.76774e-05
-2.16995e-05
-2.13127
-0.00670143
8.52011
7.45391e-05
0.0636277
0.0891443
0.0891423
0.0636326
-0.399059
8.53154
7.03232e-05
0.0319286
0.0154326
0.0154403
0.0319248
-0.106132
-2.10617
0.0732956
2.43298e-05
8.4405
9.26844e-05
-0.0302356
-0.0107121
-0.0302126
-0.0107265
8.1597e-05
8.30029
-0.0582564
-0.118672
-0.0582387
-0.118693
0.4941
-1.92064e-05
2.16493
0.00974387
2.05214
1.39428e-05
-1.60626e-05
-2.10616
0.0733009
8.44044
6.41289e-05
-0.0302253
-0.0107183
-0.0107308
-0.0302023
0.173013
8.30025
5.67416e-05
-0.0582529
-0.118683
-0.118699
-0.0582371
0.494087
-2.84902
0.592039
1.87357e-05
0.045575
8.39667
7.22417e-05
-0.319717
-0.190269
-0.319707
-0.190265
6.76357e-05
8.97249
-0.499985
-0.45629
-0.499989
-0.456306
1.33677
-1.4308e-05
1.97176
0.156961
2.21141
1.12856e-05
-1.54913e-05
-2.84901
0.592036
0.0455751
8.39661
4.93557e-05
-0.319715
-0.190245
-0.190255
-0.319709
0.923587
8.97243
4.59922e-05
-0.49998
-0.456294
-0.456307
-0.499977
1.33676
-1.82919
0.0482362
1.29022e-05
-0.0185223
8.79754
6.11026e-05
-0.14406
-0.322781
-0.144053
-0.322781
5.27138e-05
8.29155
-0.1246
-0.0906702
-0.124611
-0.090682
0.936569
-1.20474e-05
1.95346
0.273998
-0.0160434
1.79948
7.77428e-06
-9.2312e-06
-1.82918
0.0482284
-0.0185218
8.7975
4.24847e-05
-0.14406
-0.322781
-0.32278
-0.144051
1.10862
8.29151
3.67277e-05
-0.124614
-0.0906604
-0.0906739
-0.124618
0.936566
-1.49027
1.45759
6.77697e-06
0.0326889
7.66681
4.64355e-05
-0.212047
-0.148698
-0.21204
-0.148694
4.38584e-05
1.83381
-0.344155
-0.744702
-0.344153
-0.744709
1.92061
1.83383
1.92062
2.33568
-8.15548e-06
1.7472
0.0758709
-0.0235957
3.77498e-06
-3.61566e-06
-1.49027
1.45759
0.0326905
7.66676
3.21563e-05
-0.212054
-0.148683
-0.148679
-0.212048
1.34623
1.8338
3.01644e-05
-0.344154
-0.744702
-0.744708
-0.344153
1.83383
1.92061
1.92062
2.33564
-0.785128
1.82714
-5.09767e-06
2.12737
1.44597
-1.89098
-1.68235
2.4775e-05
8.39641e-06
0.791814
-2.73026e-05
-0.785133
1.82714
2.12736
5.0383e-06
1.44596
-4.79624e-06
-1.89096
-1.68235
1.35707e-05
0.0456709
2.08169
4.1442e-06
-2.3291e-06
0.0456733
5.08754e-05
-7.46232
-3.30425
-2.03249
-3.30419
-2.03255
2.85043
1.81248
2.85039
1.81249
-1.89514
-7.25773e-06
2.12434
1.8525
8.81002
3.62863e-05
-7.4623
-3.30425
-2.03248
-2.03256
-3.3042
2.85043
1.81248
1.81249
2.85039
-3.57822
3.46688
2.01161e-05
0.111334
9.25175
5.04791e-05
5.87218e-05
2.55648
-2.56338
-2.67537
-2.56348
-2.67545
2.50997
2.5564
2.50999
9.5966
8.30015
2.15754
2.20233
2.20234
2.15781
7.47509e-06
1.24701e-06
-3.57821
3.46687
0.11133
9.25177
3.49016e-05
7.51397
2.55648
4.18307e-05
-2.56338
-2.67538
-2.67546
-2.56346
2.5564
2.50997
2.50999
9.59662
-5.11973
4.91079
2.33094e-05
2.76543
1.53024e-05
-1.67891e-05
-5.11974
4.91079
-4.51409
1.26506
1.8012e-05
-0.0532731
12.3397
7.2469e-05
-11.235
-2.00007
-2.08532
-2.00007
-2.08527
8.27603e-05
12.7629
-1.50133
-1.2185
-1.50135
-1.21852
5.01656
-2.70097
-5.65565e-06
3.01153
2.45486
3.30231
1.73204e-05
-2.57974e-05
-4.51409
1.26507
-0.0532758
12.3398
5.3139e-05
-11.235
7.06584
-2.00007
-2.08522
-2.08518
-2.00009
12.7627
6.56205e-05
-1.50133
-1.2185
-1.21852
-1.50134
5.01677
9.40193e-05
-0.604789
-0.707517
-0.60467
-0.707406
3.14587
2.95198
3.14577
2.95202
0.735617
-0.777254
-3.15875
4.31216e-05
-1.96792e-05
2.76603
0.537992
-0.00170176
8.11792e-05
-0.604794
-0.70752
-0.707408
-0.604775
3.19144
3.14588
2.95199
2.95202
3.14588
1.96937e-05
0.735631
-1.75467e-05
-0.777261
-3.15876
1.63412
1.73257e-05
-0.0811081
1.8187
-0.0865784
-1.77632
1.45342e-05
0.0442009
0.276471
7.87589e-06
-1.16042e-05
1.63411
-0.0811098
1.8187
-0.086581
6.14622e-06
-8.66077e-06
-1.77631
0.0442021
1.84444
1.42862e-05
0.0288489
1.87702
0.0182167
-1.86005
1.23706e-05
-0.0351851
-0.0545919
5.89014e-06
-7.82482e-06
1.84444
0.0288493
1.87702
0.0182166
5.25483e-06
-7.56541e-06
-1.86005
-0.0351851
1.88367
1.21551e-05
-0.0251161
1.82874
0.0192768
-1.85182
1.07406e-05
0.00381163
0.0184719
5.19239e-06
-6.64582e-06
1.88367
-0.0251193
1.82874
0.0192764
3.97832e-06
-5.20001e-06
-1.85182
0.00381182
1.75003
9.76092e-06
0.00212627
0.0765836
3.5013e-06
-4.55653e-06
1.75003
0.00212657
-2.04713
-0.128581
1.62973e-05
7.99342
6.15381e-05
0.738249
-0.933407
0.73825
-0.9334
5.00643e-05
8.42652
0.178659
0.175032
0.178654
0.175029
-1.14044
-1.3727e-05
1.80419
0.520574
2.08913
6.94215e-06
-1.00611e-05
-2.04712
-0.128586
7.99339
3.39123e-05
0.767403
0.73825
-0.933406
0.738252
-0.933402
8.42649
2.68866e-05
0.178663
0.175038
0.175032
0.17866
-1.14047
-2.13127
-0.0067025
1.40622e-05
8.52007
4.71445e-05
0.0636329
0.0891406
0.0636358
0.089145
4.53542e-05
8.5315
0.0319383
0.0154337
0.0319351
0.0154357
-0.106146
-8.59313e-06
2.10798
-0.0734345
2.15619
5.97634e-06
-8.84221e-06
-2.13126
-0.00670285
8.52005
2.48941e-05
0.0636344
0.0891369
0.0891472
0.0636383
-0.399097
8.53147
2.35448e-05
0.0319398
0.0154419
0.0154363
0.0319351
-0.10615
-2.10616
0.0732999
1.22314e-05
8.44041
4.19489e-05
-0.0302381
-0.010715
-0.0302088
-0.0107223
3.67969e-05
8.3002
-0.0582448
-0.118682
-0.0582269
-0.118697
0.494075
-6.66858e-06
2.16492
0.00974291
2.05213
4.45565e-06
-5.71293e-06
-2.10615
0.0732919
8.44037
2.11314e-05
-0.0302383
-0.0107158
-0.0107213
-0.0302091
0.173001
8.30017
1.79898e-05
-0.0582435
-0.118681
-0.118697
-0.0582271
0.494073
-2.84902
0.592035
9.30157e-06
0.0455761
8.39657
3.18596e-05
-0.319722
-0.190242
-0.31971
-0.190247
2.93657e-05
8.97239