/*--------------------------------*- C++ -*----------------------------------*\
  =========                 |
  \\      /  F ield         | OpenFOAM: The Open Source CFD Toolbox
   \\    /   O peration     | Website:  https://openfoam.org
    \\  /    A nd           | Version:  10
     \\/     M anipulation  |
\*---------------------------------------------------------------------------*/
FoamFile
{
    format      ascii;
    class       volScalarField;
    location    "0";
    object      thicknessFraction;
}
// * * * * * * * * * * * * * * * * * * * * * * * * * * * * * * * * * * * * * //

dimensions      [0 0 0 0 0 0 0];

internalField   uniform 0;

boundaryField
{
    front
    {
        type            cyclic;
    }
    Back
    {
        type            cyclic;
    }
    inlet
    {
        type            fixedValue;
        value           uniform 0;
    }
    outlet
    {
        type            fixedValue;
        value           uniform 0;
    }
    upperPatch
    {
        type            fixedValue;
        value           uniform 0;
    }
    ground
    {
        type            fixedValue;
        value           nonuniform List<scalar> 
7462
(
0
0
0
0
0
0
0
0
0
0
0
0
0
0
0
0
0
0
0
0
0
0
0
0
0.928382
0.998415
1
0.475577
0.944844
0.9781
0.976196
0.999852
1
0.831781
0.979116
0.999993
0.999992
0.999999
1
0.972989
0.999994
1
1
0.999999
1
0.973384
1
1
1
0.999999
1
0.973384
1
1
1
0.999999
1
0.973384
1
1
1
0.999999
1
0.973384
1
1
1
0.999999
1
0.973384
1
1
1
0.999999
1
0.973384
1
1
1
0.999999
1
0.973384
1
1
1
0.999999
1
0.973384
1
1
1
0.999999
1
0.973384
1
1
1
0.999999
1
0.973384
1
1
1
0.999999
1
0.973384
1
1
1
0.999999
1
0.973384
1
1
1
0.999999
1
0.973384
1
1
1
0.999999
1
0.973384
1
1
1
0.999999
1
0.973384
1
0.99992
0.999961
0.999999
1
0.970766
0.999955
0.92512
0.95113
0.999495
1
0.653171
0.943258
0.919082
0.747909
0.6294
0.981958
0.816673
0.972562
0.927288
0.92435
0.92356
0.983183
0.923684
0.929802
0.995559
0.999962
0.932919
0.999821
0.973061
0.888876
0.833204
0.8154
0.123919
0.139436
0.806215
0.928247
0.837506
0.836018
0.863387
0.980766
0.683587
0.391388
0.722415
0.628209
0.983431
0.930137
0.760173
0.293068
0.714393
0.702796
0.692307
0.62067
0.573561
0.828796
0.349719
0.850016
0.826876
0.856662
0.858607
0.858561
0.858613
0.858613
0.858613
0.858613
0.858613
0.858613
0.858613
0.858613
0.858613
0.858613
0.858613
0.858613
0.858613
0.858613
0.858613
0.858613
0.858613
0.858613
0.858613
0.858613
0.858613
0.858613
0.858613
0.858613
0.858613
0.858613
0.858613
0.858613
0.858613
0.858613
0.858613
0.858613
0.858613
0.858613
0.858613
0.858613
0.858613
0.858613
0.858613
0.858613
0.858613
0.858613
0.858613
0.858613
0.858613
0.858613
0.858613
0.858613
0.858613
0.858613
0.858607
0.856662
0.858254
0.850016
0.349737
0.735281
0.573557
0.88072
0.981463
0.975472
0.923985
0.991938
0.977135
0.854491
0.722662
0.975776
0.97401
0.713324
0.708487
0.970385
0.939756
0.706149
0.982952
0.936027
0.995474
0.999962
0.999822
0.911314
0.259835
0.639333
0.275908
0.602252
0.995538
0.834094
0.688013
0.564242
0.192026
0.999021
0.703607
0.440476
0.868403
1
1
1
1
1
1
1
1
1
1
1
1
1
1
1
1
1
1
1
1
1
1
1
1
1
1
1
1
1
1
1
1
1
1
1
1
1
1
1
1
1
1
1
1
1
1
1
1
1
1
1
1
1
1
1
1
1
1
1
1
1
1
1
1
1
1
1
1
1
1
1
1
1
1
1
1
1
1
1
1
1
1
1
1
0.703607
0.440476
0.868403
0.564242
0.192027
0.517812
0.834094
0.688013
0.72572
0.854158
0.85723
0.83903
0.835405
0.834504
0.834786
0.849586
0.99995
0.859706
0.999993
0.990411
0.618809
0.345889
0.770281
0.585576
0.995548
0.991965
0.997859
0.465694
0.867995
0.98532
0.974784
0.99943
0.998455
0.999729
0.993453
0.994078
0.425224
0.697905
0.804524
0.805828
0.806076
0.806076
0.806076
0.806076
0.806076
0.806076
0.806076
0.806076
0.806076
0.806076
0.806076
0.806076
0.806076
0.806076
0.806076
0.806076
0.806076
0.806076
0.806076
0.806076
0.806076
0.806076
0.806076
0.806076
0.806076
0.806076
0.806076
0.806076
0.806076
0.806076
0.805828
0.804524
0.697906
0.796128
0.717878
0.737917
0.92946
0.423729
0.77291
0.531474
0.574579
0.558563
0.073383
0.64435
0.553961
0.599037
0.807749
0.987059
0.858874
0.465695
0.764952
0.822521
0.982837
0.811029
0.856571
0.76688
0.680497
0.972749
0.981974
0.693896
0.771816
0.266275
0.981766
0.996848
0.998351
0.998179
0.568283
0.244834
0.53649
0.175271
0.51406
0.163244
0.507379
0.996504
0.991124
0.986967
0.998768
0.999212
0.999873
1
1
1
1
1
1
1
1
1
1
1
1
1
1
1
1
1
1
1
1
1
1
1
1
1
1
1
1
1
1
1
1
1
1
1
1
1
1
1
1
1
1
1
1
1
1
1
1
1
1
1
1
1
1
1
1
1
1
1
1
1
1
1
1
1
1
1
1
1
1
1
1
0.998768
0.999212
0.991124
0.986967
0.51406
0.163245
0.536491
0.175271
0.598228
0.568282
0.24483
0.475597
0.985776
0.993978
0.998766
0.998236
0.999994
0.999316
0.816305
0.925092
0.785211
0.784043
0.710527
0.775854
0.708643
0.769046
0.684612
0.758085
0.794163
0.862226
0.999949
0.863248
0.999993
0.990874
0.975754
0.940109
0.9836
0.885727
0.999722
0.999978
0.999998
0.999997
0.997813
0.997404
0.958407
0.936078
0.65317
0.99222
0.979342
0.99973
0.999907
0.927047
0.954719
0.315001
0.499748
0.525108
0.987526
0.998224
0.999745
0.999984
0.999746
0.999992
0.999536
0.999879
0.999746
0.999992
0.999746
0.999992
0.99992
0.999746
0.999746
0.999924
1
1
1
1
1
1
0.315
0.97838
0.978129
0.99991
0.999911
0.978167
0.980027
0.999912
0.999921
0.980924
0.999926
0.863283
0.998661
1
1
1
1
1
1
0.999829
0.999991
0.999993
0.999998
1
0.999993
0.999993
1
1
0.999994
1
0.999838
1
1
1
1
1
1
1
1
0.999998
1
0.999998
1
1
1
1
1
1
1
1
1
1
1
1
1
1
1
0.832277
0.999746
0.999992
0.999746
0.999992
0.999998
1
0.999998
1
1
1
1
1
1
1
1
1
1
1
1
1
1
1
0.832277
0.832277
0.999746
0.999992
0.999746
0.999992
0.999998
1
0.999998
1
1
1
1
1
1
1
1
1
1
1
1
1
1
1
1
0.832277
0.999746
0.999992
0.999746
0.999992
0.999998
1
0.999998
1
1
1
1
1
1
1
1
1
1
1
1
1
1
1
1
0.832277
0.999746
0.999992
0.999746
0.999992
0.999998
1
0.999998
1
1
1
1
1
1
1
1
1
1
1
1
1
1
1
0.999746
0.999992
0.999746
0.999992
0.999998
1
0.999998
1
1
1
1
1
1
1
1
1
1
1
1
1
1
1
0.832277
0.999746
0.999992
0.999746
0.999992
0.999998
1
0.999998
1
1
1
1
1
1
1
1
1
1
1
1
1
1
1
1
0.999746
0.999992
0.999746
0.999992
0.999998
1
0.999998
1
1
1
1
1
1
1
1
1
1
1
1
1
1
1
1
0.832277
0.999746
0.999992
0.999746
0.999992
0.999998
1
0.999998
1
1
1
1
1
1
1
1
1
1
1
1
1
1
1
0.832277
0.999746
0.999992
0.999746
0.999992
0.999998
1
0.999998
1
1
1
1
1
1
1
1
1
1
1
1
1
1
1
0.832277
0.832277
0.999746
0.999992
0.999746
0.999992
0.999998
1
0.999998
1
1
1
1
1
1
1
1
1
1
1
1
1
1
1
1
0.832277
0.999746
0.999992
0.999746
0.999992
0.999998
1
0.999998
1
1
1
1
1
1
1
1
1
1
1
1
1
1
1
1
0.832277
0.999746
0.999992
0.999746
0.999992
0.999998
1
0.999998
1
1
1
1
1
1
1
1
1
1
1
1
1
1
1
0.999746
0.999992
0.999746
0.999992
0.999998
1
0.999998
1
1
1
1
1
1
1
1
1
1
1
1
1
1
1
0.832277
0.999746
0.999992
0.999746
0.999991
0.999998
1
0.999998
1
1
1
0.999999
0.999995
1
0.999994
1
0.999839
1
1
1
1
1
1
0.999987
0.999745
0.999984
0.998164
0.995079
0.99999
0.999991
0.994786
0.994344
0.999988
0.999936
0.993253
0.983415
0.99993
0.981974
0.912025
0.998662
0.863161
1
1
1
1
1
1
0.785617
0.932777
0.799601
0.815739
0.922086
0.865496
0.811094
0.237283
1
1
1
1
1
1
0.260183
0.654837
0.681156
0.246371
0.411193
0.947707
0.839037
0.852726
0.842441
0.270898
0.793974
0.90061
0.765939
0.449909
0.854442
0.691121
0.236505
0.228754
0.616158
0.228023
0.234692
0.264027
0.685534
0.28482
0.903164
0.931197
0.932662
0.805708
0.779781
0.805488
0.936251
0.800267
0.923664
0.798924
0.923553
0.799151
0.924242
0.815153
0.926017
0.825807
0.93146
0.903276
0.907036
0.907769
0.90777
0.90777
0.90777
0.90777
0.90777
0.90777
0.90777
0.90777
0.90777
0.90777
0.90777
0.907036
0.903276
0.683144
0.864485
0.455494
0.709394
0.2293
0.616287
0.228052
0.23364
0.282918
0.932288
0.933862
0.381047
0.830018
0.986845
0.971647
0.980729
0.919458
0.97538
0.915201
0.975086
0.910639
0.961918
0.902515
0.949216
0.833518
0.932187
0.831168
0.925683
0.958418
0.9237
0.863961
0.936125
0.999999
1
1
1
1
1
1
1
1
1
1
1
1
1
1
1
1
1
1
1
1
1
1
1
1
1
1
1
1
0.999999
0.981542
0.923687
0.863904
0.982181
0.995553
0.999276
0.999899
0.973427
0.0662276
0.190518
0.675719
0.431573
0.999965
0.999991
0.999992
0.999971
0.999924
0.999746
0.999971
0.999992
0.999746
0.999924
0.999992
0.999971
0.999443
0.999838
0.998476
0.999843
1
1
1
0.978309
0.995382
0.995385
0.968575
0.994791
0.992624
0.962045
0.999443
0.884398
0.902619
0.977839
0.970523
0.999989
0.999973
0.999999
1
1
1
0.924634
0.978174
0.995637
0.995323
0.992918
0.999993
1
1
0.999986
1
0.999999
0.999988
0.999443
0.999998
0.99991
0.99996
0.999993
1
0.999999
1
1
1
1
0.999993
0.999993
1
1
0.999317
1
1
1
1
1
1
1
0.999443
1
1
1
1
1
0.999999
1
1
1
1
0.973384
1
1
1
0.999319
1
1
1
1
1
1
1
0.999443
1
1
1
1
1
0.999999
1
1
1
1
1
1
1
1
0.999319
1
1
1
1
1
1
1
0.999443
1
1
1
1
1
0.999999
1
1
1
1
0.973384
1
1
1
0.999319
1
1
1
1
1
1
1
0.999443
1
1
1
1
1
0.999999
1
1
1
1
1
1
1
0.999319
1
1
1
1
1
1
1
0.999443
1
1
1
1
1
0.999999
1
1
1
1
0.973384
1
1
1
0.999319
1
1
1
1
1
1
1
0.999443
1
1
1
1
1
0.999999
1
1
1
1
1
1
1
0.999319
1
1
1
1
1
1
1
0.999443
1
1
1
1
1
0.999999
1
1
1
1
0.973384
1
1
1
0.999319
1
1
1
1
1
1
1
0.999443
1
1
1
1
1
0.999999
1
1
1
1
1
1
1
1
0.999319
1
1
1
1
1
1
1
0.999443
1
1
1
1
1
0.999999
1
1
1
1
0.973384
1
1
1
0.999319
1
1
1
1
1
1
1
0.999443
1
1
1
1
1
0.999999
1
1
1
1
1
1
1
1
0.999319
1
1
1
1
1
1
1
0.999443
1
1
1
1
1
0.999999
1
1
1
1
0.973384
1
1
1
0.999319
1
1
1
1
1
1
1
0.999443
1
1
1
1
1
0.999999
1
1
1
1
1
1
1
0.999319
1
1
1
1
1
1
1
0.999443
1
1
1
1
1
0.999999
1
1
1
1
0.973384
1
1
1
0.999319
1
1
1
1
1
1
1
0.999443
1
1
1
1
1
0.999999
1
1
1
1
1
1
1
0.999319
1
1
1
1
1
1
0.999999
0.999443
1
1
1
1
1
0.999999
1
1
1
1
0.973381
1
1
1
0.999319
0.999929
0.999308
0.99939
0.999879
0.999611
0.999024
0.991994
0.999443
0.996328
0.999176
0.99955
0.994347
1
0.999997
1
1
1
1
0.999912
0.999961
0.999573
0.999616
0.998243
0.999443
0.998911
0.999955
0.999892
1
1
1
1
1
1
1
1
1
1
1
1
1
1
0.999999
0.999999
0.998627
0.999443
0.998627
0.722991
0.7131
0.77062
0.97816
0.995346
0.978127
0.995298
0.999251
0.999911
0.999247
0.999911
0.978347
0.995306
0.978914
0.995734
0.999247
0.999912
0.999321
0.999915
0.980318
0.995948
0.978527
0.999361
0.99992
0.957871
0.853383
0.957109
0.991965
0.990702
0.961513
0.991746
1
1
1
1
1
1
1
1
1
1
1
1
0.999999
0.999999
0.998627
0.999443
0.998627
0.996312
0.999174
0.994332
0.999547
0.997195
0.998561
0.938087
0.98294
0.982968
0.980022
0.999911
0.999965
0.999956
0.981688
0.997986
0.991873
0.999998
0.999992
0.999993
1
0.999998
1
1
1
0.999993
1
0.999993
1
1
1
1
1
0.999993
1
0.999992
1
1
1
0.999983
0.999798
0.999982
0.999999
0.999999
0.999986
0.999999
1
1
1
1
1
1
1
1
1
1
1
1
0.999999
1
0.999999
0.998627
0.999443
0.998627
1
1
1
0.999998
0.999997
0.999994
1
1
0.995866
0.999319
0.995879
0.999998
1
1
1
0.999998
1
1
1
1
1
1
1
1
1
1
1
1
1
1
1
1
1
1
1
1
1
1
1
1
1
1
1
1
1
1
1
1
1
1
1
1
1
1
0.999999
0.999999
0.998627
0.999443
0.998627
1
1
1
1
0.999866
0.994582
1
1
1
1
0.99588
0.999319
0.99588
0.999924
0.999746
0.999971
0.999992
0.999746
0.999924
0.999992
0.999971
1
0.999998
1
1
0.999998
1
1
1
1
1
1
1
1
1
1
1
1
1
1
1
1
1
1
1
1
1
1
1
1
1
1
1
1
1
1
1
1
1
1
1
0.999999
1
0.999999
0.998627
0.999443
0.998627
1
1
1
1
1
1
1
1
0.99588
0.999319
0.99588
0.999924
0.999746
0.999971
0.999992
0.999746
0.999924
0.999992
0.999971
1
0.999998
1
1
0.999998
1
1
1
1
1
1
1
1
1
1
1
1
1
1
1
1
1
1
1
1
1
1
1
1
1
1
1
1
1
1
1
1
1
1
0.999999
1
0.999999
0.998627
0.999443
0.998627
1
1
1
1
0.999866
0.994582
0.994582
1
1
1
1
1
1
1
0.99588
0.999319
0.99588
0.999924
0.999746
0.999971
0.999992
0.999746
0.999924
0.999992
0.999971
1
0.999998
1
1
0.999998
1
1
1
1
1
1
1
1
1
1
1
1
1
1
1
1
1
1
1
1
1
1
1
1
1
1
1
1
1
1
1
1
1
1
0.999999
1
0.999999
0.998627
0.999443
0.998627
1
1
1
1
1
1
0.999866
0.994582
1
1
1
1
1
1
0.99588
0.999319
0.99588
0.999924
0.999746
0.999971
0.999992
0.999746
0.999924
0.999992
0.999971
1
0.999998
1
1
0.999998
1
1
1
1
1
1
1
1
1
1
1
1
1
1
1
1
1
1
1
1
1
1
1
1
1
1
1
1
1
1
1
1
1
0.999999
0.999999
0.998627
0.999443
0.998627
1
1
1
0.994582
0.999866
0.994582
1
1
1
1
1
1
0.99588
0.999319
0.99588
0.999924
0.999746
0.999971
0.999992
0.999746
0.999924
0.999992
0.999971
1
0.999998
1
1
0.999998
1
1
1
1
1
1
1
1
1
1
1
1
1
1
1
1
1
1
1
1
1
1
1
1
1
1
1
1
1
1
1
1
1
1
1
0.999999
1
0.999999
0.998627
0.999443
0.998627
1
1
1
0.999866
0.994582
0.999866
1
1
1
1
1
1
1
0.99588
0.999319
0.99588
0.999924
0.999746
0.999971
0.999992
0.999746
0.999924
0.999992
0.999971
1
0.999998
1
1
0.999998
1
1
1
1
1
1
1
1
1
1
1
1
1
1
1
1
1
1
1
1
1
1
1
1
1
1
1
1
1
1
1
1
1
1
1
0.999999
0.999999
0.998627
0.999443
0.998627
1
1
1
1
1
0.999866
0.994582
1
1
1
1
1
1
0.99588
0.999319
0.99588
0.999924
0.999746
0.999971
0.999992
0.999746
0.999924
0.999992
0.999971
1
0.999998
1
1
0.999998
1
1
1
1
1
1
1
1
1
1
1
1
1
1
1
1
1
1
1
1
1
1
1
1
1
1
1
1
1
1
1
1
1
1
1
0.999999
0.999999
0.998627
0.999443
0.998627
1
1
1
1
0.999866
1
1
1
1
1
0.99588
0.999319
0.99588
0.999924
0.999746
0.999971
0.999992
0.999746
0.999924
0.999992
0.999971
1
0.999998
1
1
0.999998
1
1
1
1
1
1
1
1
1
1
1
1
1
1
1
1
1
1
1
1
1
1
1
1
1
1
1
1
1
1
1
1
1
1
1
1
1
1
0.999999
0.999999
0.998627
0.999443
0.998627
1
1
1
1
0.999866
0.994582
1
1
1
1
0.99588
0.999319
0.99588
0.999924
0.999746
0.999971
0.999992
0.999746
0.999924
0.999992
0.999971
1
0.999998
1
1
0.999998
1
1
1
1
1
1
1
1
1
1
1
1
1
1
1
1
1
1
1
1
1
1
1
1
1
1
1
1
1
1
1
1
1
1
1
0.999999
1
0.999999
0.998627
0.999443
0.998627
1
1
1
1
1
1
1
1
0.99588
0.999319
0.99588
0.999924
0.999746
0.999971
0.999992
0.999746
0.999924
0.999992
0.999971
1
0.999998
1
1
0.999998
1
1
1
1
1
1
1
1
1
1
1
1
1
1
1
1
1
1
1
1
1
1
1
1
1
1
1
1
1
1
1
1
1
1
0.999999
1
0.999999
0.998627
0.999443
0.998627
1
1
1
1
0.999866
0.994582
0.994582
1
1
1
1
1
1
1
0.99588
0.999319
0.99588
0.999924
0.999746
0.999971
0.999992
0.999746
0.999924
0.999992
0.999971
1
0.999998
1
1
0.999998
1
1
1
1
1
1
1
1
1
1
1
1
1
1
1
1
1
1
1
1
1
1
1
1
1
1
1
1
1
1
1
1
1
1
0.999999
1
0.999999
0.998627
0.999443
0.998627
1
1
1
1
1
1
0.999866
0.994582
1
1
1
1
1
1
0.99588
0.999319
0.99588
0.999924
0.999746
0.999971
0.999992
0.999746
0.999924
0.999992
0.999971
1
0.999998
1
1
0.999998
1
1
1
1
1
1
1
1
1
1
1
1
1
1
1
1
1
1
1
1
1
1
1
1
1
1
1
1
1
1
1
1
1
0.999999
0.999999
0.998627
0.999443
0.998627
1
1
1
0.994582
0.999866
0.994582
1
1
1
1
1
1
0.99588
0.999319
0.99588
0.999924
0.999746
0.999971
0.999992
0.999746
0.999924
0.999992
0.999971
1
0.999998
1
1
0.999998
1
1
1
1
1
1
1
1
1
1
1
1
1
1
1
1
1
1
1
1
1
1
1
1
1
1
1
1
1
1
1
1
1
1
1
0.999999
1
0.999999
0.998627
0.999443
0.998627
1
1
1
0.999866
0.994582
0.999866
1
1
1
1
1
1
1
0.99588
0.999319
0.99588
0.999924
0.999746
0.999971
0.999992
0.999746
0.999924
0.999991
0.999971
1
0.999998
1
1
0.999998
0.999999
1
0.999999
1
1
1
1
1
0.999998
1
0.999996
1
1
1
1
0.999993
0.999999
1
0.999999
0.999988
0.999983
0.999999
0.999986
1
1
1
1
1
1
1
1
1
1
1
1
0.999999
0.999999
0.998627
0.999443
0.998627
0.999998
0.999911
0.999993
0.999961
0.999998
0.999866
0.994582
1
1
1
0.999993
0.999998
0.999997
0.995879
0.999318
0.995866
0.99992
0.999729
0.999964
0.999898
0.997205
0.999527
0.995873
0.9992
0.999991
0.999899
0.999992
0.999893
0.994706
0.999161
0.99464
0.999089
0.999976
0.99986
0.999954
0.999452
0.990597
0.99886
0.986592
0.996529
0.999921
0.999395
0.999909
0.980549
0.996181
0.9786
0.990727
0.962181
0.957981
0.85353
0.991758
0.961539
1
1
1
1
1
1
1
1
1
1
1
1
0.999999
0.999999
0.998627
0.999443
0.998627
0.99721
0.902084
0.977853
0.970529
0.982224
0.998561
0.999966
0.999956
0.999931
0.983214
0.983319
0.992206
0.994371
0.983527
1
1
1
1
1
1
1
1
1
1
1
1
0.999999
1
0.999999
0.998627
0.999443
0.998627
0.910988
0.677542
0.630659
0.585291
0.242874
0.267234
0.867272
0.990349
0.989138
0.9958
0.999226
0.925075
0.931963
0.985227
0.993623
0.998743
0.998144
0.999994
0.999983
0.999328
0.972817
0.981246
0.576891
0.191393
0.224259
0.560307
0.261994
0.244643
0.995649
0.99208
0.99437
0.998047
0.998382
0.998092
0.997701
0.998535
0.994555
0.997
0.999717
0.999977
0.999998
0.999997
0.997895
0.499633
0.525216
0.219142
0.995599
0.995599
0.995599
0.995599
0.995599
0.995599
0.995599
0.995599
0.995599
0.995599
0.995599
0.995599
0.995599
0.995599
0.995599
0.995599
0.995599
0.995599
0.995599
0.995599
0.995599
0.995599
0.995599
0.995599
0.995599
0.995599
0.995599
0.995599
0.995599
0.995599
0.995599
0.995599
0.995599
0.681561
0.954435
0.967915
0.877594
0.972773
0.978809
0.451841
0.756479
0.999874
0.999911
0.829476
0.939751
1
1
1
1
0.999918
0.941294
1
1
0.999918
0.941294
1
1
0.999918
0.941294
1
1
1
0.999918
0.832277
0.941294
1
1
1
0.999918
0.832277
0.941294
1
1
1
0.999918
0.832277
0.941294
1
1
0.999918
0.832277
0.941294
1
0.999918
0.832277
0.941294
1
1
1
1
0.999918
0.941294
1
1
0.999918
0.941294
1
1
0.999918
0.941294
1
1
1
0.999918
0.832277
0.941294
1
1
1
0.999918
0.832277
0.941294
1
1
1
0.999918
0.832277
0.941294
1
1
0.999918
0.83227
0.941292
0.998914
0.999842
0.819615
0.933823
0.751675
0.658989
0.904087
0.936511
0.659756
0.845969
0.657646
0.848894
0.836291
0.767068
0.924401
0.926549
0.925435
0.921503
0.923513
0.92662
0.821475
0.651698
0.921803
0.92543
0.922317
0.924679
0.242838
0.555227
0.421252
0.707422
0.774277
0.381045
0.845169
0.720069
0.683142
0.970766
0.933811
0.83227
0.941292
0.90777
0.973384
0.90777
0.832277
0.941294
0.90777
0.941294
0.90777
0.941294
0.90777
0.973384
0.941294
0.90777
0.832277
0.941294
0.90777
0.90777
0.941294
0.90777
0.973384
0.941294
0.832277
0.941294
0.90777
0.973384
0.90777
0.832277
0.941294
0.90777
0.941294
0.90777
0.941294
0.90777
0.973384
0.941294
0.90777
0.832277
0.941294
0.90777
0.90777
0.941294
0.907769
0.972989
0.939752
0.452647
0.759252
0.844694
0.836924
0.76719
0.957396
0.933024
0.929753
0.81959
0.995588
0.932524
0.838428
0.819535
0.968995
0.982122
0.765626
0.201981
0.622074
0.304471
0.332568
0.258792
0.67935
0.835803
0.838979
0.997577
0.855964
0.994096
0.998279
0.835358
0.979045
0.869922
0.835556
0.799351
0.735258
0.858254
0.858613
0.858613
0.858613
0.858613
0.858613
0.858613
0.858561
0.82688
0.244716
0.354316
0.561001
0.989887
0.988172
0.941382
0.830167
0.980989
0.723987
0.922463
0.956663
0.7388
0.937932
0.747358
0.733794
0.451222
0.936595
0.727779
0.883414
0.98524
0.977736
0.72572
0.437835
0.517811
0.165934
0.998048
0.99945
0.999739
0.978711
0.944369
0.984605
0.888741
0.779647
0.99999
0.999994
1
1
1
1
1
1
1
1
1
1
1
1
1
1
1
1
1
1
1
1
1
1
1
1
1
1
1
1
1
1
1
1
1
1
1
1
1
1
1
1
1
1
1
1
1
1
1
1
0.99999
0.999994
0.779648
0.165934
0.683586
0.394049
0.437835
0.827632
0.853523
0.968364
0.850231
0.966162
0.856465
0.834613
0.96477
0.847632
0.965093
0.846818
0.964482
0.844687
0.964262
0.84591
0.834458
0.964301
0.847393
0.964847
0.844374
0.964036
0.843795
0.964046
0.843639
0.83543
0.965997
0.85177
0.965794
0.852897
0.965546
0.846688
0.966018
0.849282
0.838763
0.975003
0.864503
0.970463
0.886513
0.859302
0.864133
0.999983
0.833039
0.833972
0.99991
0.999691
0.837207
0.99898
0.814321
0.97414
0.840342
0.872306
0.975998
0.97348
0.446035
0.611255
0.99772
0.938747
0.809379
0.925501
0.818774
0.386404
0.341402
0.783427
0.80263
0.999348
0.997451
0.934247
0.776997
0.995983
0.999064
0.5488
0.981542
1
0.798566
0.999987
1
0.806046
0.759785
1
1
0.806073
0.759859
1
0.759866
1
1
0.806076
1
1
1
0.806076
1
1
1
0.806076
0.759867
0.759867
1
1
0.806076
0.759867
1
1
0.806076
1
1
0.759867
1
1
0.806076
1
1
0.806076
0.759867
1
1
0.806076
0.759867
1
0.759867
1
1
0.806076
1
1
1
0.806076
1
1
1
0.806076
0.759867
0.759867
1
1
0.806076
0.759867
1
1
0.806076
1
1
0.759867
1
1
0.806076
1
1
0.806076
0.759867
1
1
0.806076
0.759867
1
0.759867
1
1
0.806076
1
1
1
0.806076
1
1
1
0.806076
0.759867
0.759867
1
1
0.806076
0.759867
1
1
0.806076
1
1
0.759867
1
1
0.806076
1
1
0.806076
0.759867
1
1
0.806076
0.759867
1
0.759867
1
1
0.806076
1
1
1
0.806076
1
1
1
0.806076
0.759867
0.759867
1
1
0.806076
0.759867
1
1
0.806073
1
1
0.759866
1
1
0.806046
1
1
0.798566
0.741229
0.999987
0.99987
0.776997
0.690558
0.995983
0.548801
0.301229
0.350359
0.591637
0.180727
0.0951296
0.687742
0.734947
0.598763
0.23707
0.26607
0.683747
0.76068
0.837639
0.840495
0.996571
0.845897
0.998507
0.749241
0.691132
0.386402
0.783428
0.829949
0.751305
0.222931
0.80263
0.809378
0.341346
0.92547
0.981299
0.845228
0.70776
0.730353
0.968726
0.7214
0.60723
0.78349
0.281986
0.64368
0.983854
0.994688
0.998436
0.999148
0.999243
0.241865
0.598228
0.214514
0.160689
0.993302
0.9926
0.976503
0.986499
0.877151
0.959406
0.935529
0.999912
1
1
1
1
1
1
1
1
1
1
1
1
1
1
1
1
1
1
1
1
1
1
1
1
1
1
1
1
1
1
1
1
1
1
1
1
1
1
1
1
1
1
1
1
1
1
1
1
1
1
1
1
1
1
1
1
0.999873
0.999912
0.959406
0.93553
0.507379
0.160689
0.214514
0.938747
0.241864
0.932388
0.99943
0.999998
0.184504
0.0661452
0.834724
0.675531
0.868302
0.810542
0.773574
0.772289
0.729102
0.764792
0.860146
0.864406
0.833724
0.836935
0.999911
0.999704
0.848763
0.728415
0.872111
0.99787
0.767512
0.830256
0.425239
0.724445
0.999891
0.999999
0.964645
0.994081
0.99265
0.898052
0.978961
0.971378
0.849933
0.997224
0.864822
0.992159
0.722992
0.873578
0.184634
0.834746
0.195528
0.219035
0.702942
0.431152
0.997351
0.999526
0.999924
0.999924
0.999999
1
1
0.992159
0.999495
0.997224
0.864821
0.977824
0.999912
0.999909
0.978391
0.999917
0.999914
0.910663
0.999903
0.999221
0.998909
1
1
1
0.995599
0.995599
0.952144
0.933621
0.999769
0.999076
0.999999
0.999987
0.993737
0.978914
0.999921
0.999928
0.999924
0.978241
0.999903
0.999906
0.894788
0.999827
0.978748
0.687541
0.859238
0.999993
1
0.999993
1
1
0.99991
1
1
1
1
1
1
0.995599
0.995599
0.999987
0.999982
1
0.999989
0.99447
0.999999
0.999989
0.973384
0.994582
0.999993
1
1
1
1
0.999991
0.999986
0.999993
0.981226
0.999918
0.981789
0.831785
0.941054
1
1
1
1
1
1
1
1
1
1
0.999999
1
1
0.995599
1
1
1
0.999989
0.994582
0.999989
1
1
1
1
1
1
0.999993
1
0.999993
0.98179
0.999918
0.98179
0.832277
0.941294
1
1
1
1
1
1
1
1
1
1
1
0.999999
1
1
1
1
1
1
0.999989
0.994582
0.999989
0.973384
0.994582
1
1
1
1
1
1
1
0.999993
1
0.999993
0.98179
0.999918
0.98179
0.941294
1
1
1
1
1
1
1
1
1
1
1
1
1
0.995599
0.995599
1
1
1
0.999989
0.999999
0.999989
0.973384
1
1
1
1
1
0.999993
0.999993
0.98179
0.999918
0.98179
0.832277
0.941294
1
1
1
1
1
1
1
1
1
1
1
1
0.995599
0.995599
1
1
1
0.999989
0.994582
0.999999
0.999989
1
1
1
1
1
0.999993
0.999993
0.98179
0.999918
0.98179
0.941294
1
1
1
1
1
1
1
1
1
1
1
1
0.999999
1
1
0.995599
1
1
1
0.999989
0.999989
0.973384
1
1
1
1
1
0.999993
1
0.999993
0.98179
0.999918
0.98179
0.832277
0.941294
1
1
1
1
1
1
1
1
1
1
1
0.999999
1
1
1
1
1
1
0.999989
0.999989
0.973384
0.994582
1
1
1
1
1
0.999993
0.999993
0.98179
0.999918
0.98179
0.941294
1
1
1
1
1
1
1
1
1
1
1
1
1
0.995599
0.995599
1
1
1
0.999989
0.999999
0.999989
0.994582
1
1
1
1
0.999993
1
0.999993
0.98179
0.999918
0.98179
0.832277
0.941294
1
1
1
1
1
1
1
1
1
1
1
0.995599
0.995599
1
1
1
1
0.999989
0.994582
0.999999
0.999989
0.973384
0.994582
1
1
1
1
1
0.999993
0.999993
0.98179
0.999918
0.98179
0.941294
1
1
1
1
1
1
1
1
1
1
0.999999
1
1
0.995599
1
1
1
0.999989
0.994582
0.999989
1
1
1
1
1
1
0.999993
1
0.999993
0.98179
0.999918
0.98179
0.832277
0.941294
1
1
1
1
1
1
1
1
1
1
1
0.999999
1
1
1
1
1
1
0.999989
0.994582
0.999989
0.973384
0.994582
1
1
1
1
1
1
1
0.999993
1
0.999993
0.98179
0.999918
0.98179
0.941294
1
1
1
1
1
1
1
1
1
1
1
1
1
0.995599
0.995599
1
1
1
0.999989
0.999999
0.999989
0.973384
1
1
1
1
1
0.999993
0.999993
0.98179
0.999918
0.98179
0.832277
0.941294
1
1
1
1
1
1
1
1
1
1
1
1
0.995599
0.995599
1
1
1
0.999989
0.994582
0.999999
0.999989
1
1
1
1
1
0.999993
0.999993
0.98179
0.999918
0.98179
0.941294
1
1
1
1
1
1
1
1
1
1
1
1
0.999999
1
1
0.995599
1
1
1
0.999989
0.999989
0.973384
1
1
1
1
1
0.999993
1
0.999993
0.98179
0.999918
0.98179
0.832277
0.941294
1
1
1
1
1
1
1
1
1
1
1
0.999999
1
1
1
1
1
1
0.999989
0.999989
0.973384
0.994582
1
1
1
1
1
0.999993
0.999993
0.98179
0.999918
0.98179
0.941294
1
0.999993
0.999992
1
0.999993
0.999998
1
0.999997
0.999911
0.999875
1
1
1
0.995599
0.995599
1
1
0.999982
0.999989
0.999999
0.999989
0.99447
1
0.999994
0.999994
0.999997
0.999993
0.999995
0.999987
0.981789
0.999912
0.981229
0.83221
0.941267
0.999913
0.978036
0.999972
0.979054
0.988843
0.999227
0.986686
0.878154
1
1
1
0.995599
0.995599
0.99983
0.999771
0.952395
0.933813
0.999987
0.993737
0.999852
0.999076
0.831782
0.938087
0.999933
0.973034
0.981856
0.981112
0.985055
0.99992
0.981464
0.978778
0.982264
0.900477
0.91336
0.63322
0.2534
1
0.998415
0.999999
1
0.995599
0.758186
0.939347
0.825486
0.240608
0.586027
0.252492
0.632079
0.617808
0.658408
0.249457
0.717323
0.403818
0.611369
0.756134
0.802068
0.806137
0.799055
0.797748
0.801569
0.923547
0.799432
0.268633
0.794785
0.797404
0.808379
0.921618
0.715699
0.896361
0.23684
0.571554
0.819612
0.785586
0.832277
0.832277
0.832277
0.832277
0.832277
0.832277
0.832277
0.832277
0.832277
0.832277
0.832277
0.832277
0.829476
0.831785
0.824038
0.799102
0.798908
0.800185
0.803917
0.824407
0.807054
0.793836
0.794976
0.923616
0.79897
0.803052
0.925173
0.80341
0.104856
0.411191
0.22293
0.830466
0.690557
0.741229
0.886662
0.755894
0.913254
0.90768
0.973341
0.759211
0.907762
0.973381
0.83221
0.941267
0.90777
0.759867
0.759867
0.759867
0.90777
0.973384
0.759867
0.832277
0.941294
0.90777
0.973384
0.90777
0.759867
0.832277
0.941294
0.90777
0.759867
0.759867
0.90777
0.973384
0.759867
0.941294
0.90777
0.973384
0.759867
0.90777
0.973384
0.832277
0.941294
0.90777
0.759867
0.759867
0.759867
0.90777
0.759867
0.832277
0.941294
0.90777
0.973384
0.90777
0.759867
0.832277
0.941294
0.90777
0.759867
0.759867
0.90777
0.759867
0.941294
0.90777
0.973384
0.759867
0.90777
0.832277
0.941294
0.90777
0.759867
0.759867
0.759867
0.90777
0.973384
0.759867
0.832277
0.941294
0.90777
0.973384
0.90777
0.759867
0.832277
0.941294
0.90777
0.759867
0.759867
0.90777
0.973384
0.759867
0.941294
0.90777
0.973384
0.759867
0.90777
0.973384
0.832277
0.941294
0.90777
0.759867
0.759867
0.759867
0.90777
0.759867
0.832277
0.941294
0.90777
0.973384
0.90777
0.759867
0.832277
0.941294
0.907762
0.759859
0.759785
0.90768
0.759211
0.941054
0.886663
0.960434
0.755894
0.830467
0.68774
0.859889
0.618628
0.715256
0.403763
0.612095
0.804662
0.808408
0.804286
0.813225
0.939292
0.830962
0.104856
0.812311
0.75107
0.919016
0.898054
0.845359
0.784858
0.766186
0.883589
0.996242
0.999415
0.999937
1
1
1
1
1
1
1
1
1
1
1
1
1
1
1
1
1
1
1
1
1
1
1
1
1
1
1
1
1
1
1
1
1
1
1
1
1
1
1
1
1
1
1
1
1
1
1
1
1
1
1
1
1
1
1
1
1
0.999415
0.88359
0.996242
0.98329
0.818774
0.784859
0.952432
0.931158
0.913955
0.913143
0.883339
0.852591
0.825681
0.807518
0.794919
0.874669
0.946394
0.848427
0.978964
0.890813
0.751327
0.699237
0.971391
0.850078
0.776073
0.890001
0.82995
0.947408
0.945005
0.98329
0.999995
0.99987
1
1
1
1
1
1
1
1
1
1
1
1
1
1
1
1
1
1
1
1
1
1
1
1
1
1
1
1
1
1
1
1
1
1
1
1
1
1
1
1
1
1
1
1
1
1
1
1
1
1
1
1
1
1
1
1
1
1
1
1
1
1
1
1
1
1
1
1
1
1
1
1
1
1
1
1
1
1
1
1
1
1
1
1
1
1
1
1
0.999995
1
0.999937
0.947408
0.945005
0.999064
0.776073
0.890001
0.766186
0.845357
0.890807
0.699055
0.487399
0.190204
0.996184
0.999364
0.985878
0.994434
0.770622
0.929182
0.960599
0.964908
0.9642
0.992426
0.998476
0.713102
0.908576
0.9082
0.487849
0.703283
0.999971
0.999971
0.999924
0.999971
0.999924
0.999971
1
1
1
1
0.999443
0.999863
0.999863
0.964908
0.864519
0.966428
0.975736
1
1
1
0.999443
0.999863
0.999863
0.994453
0.989927
0.974578
0.995307
0.999852
0.99999
1
1
0.999443
0.999863
0.999863
0.999866
1
0.999295
0.999918
1
1
1
1
0.999443
0.999863
0.999863
1
1
0.999319
0.999918
1
1
1
1
1
1
1
0.999443
0.999863
0.999863
0.999866
0.999866
1
1
0.999319
0.999918
1
1
1
1
0.999443
0.999863
0.999863
1
0.999319
0.999918
1
1
1
1
0.999443
0.999863
0.999863
0.999866
1
0.999319
0.999918
1
1
1
1
1
1
1
0.999443
0.999863
0.999863
0.999866
1
0.999319
0.999918
1
1
1
1
1
0.999443
0.999863
0.999863
1
0.999319
0.999918
1
1
1
1
1
1
0.999443
0.999863
0.999863
1
1
0.999319
0.999918
1
1
1
1
1
1
1
0.999443
0.999863
0.999863
0.999866
0.999866
1
0.999319
0.999918
1
1
1
1
0.999443
0.999863
0.999863
1
1
0.999319
0.999918
1
1
1
1
1
1
1
0.999443
0.999863
0.999863
0.999866
0.999866
1
1
0.999319
0.999918
1
1
1
1
0.999443
0.999863
0.999863
1
0.999319
0.999918
1
1
1
1
0.999443
0.999863
0.999863
0.999866
1
0.999319
0.999918
1
1
1
1
1
1
1
0.999443
0.999863
0.999863
0.999866
1
0.999319
0.999918
1
1
1
1
1
0.999443
0.999863
0.999863
1
0.999319
0.999918
1
0.999999
1
1
1
1
0.999443
0.999863
0.999863
1
1
0.999319
0.999918
0.998734
0.993042
1
1
1
1
1
0.999443
0.999863
0.999863
0.99964
0.99984
0.999183
0.999138
0.999294
1
1
1
1
0.999443
0.999863
0.999863
0.999985
0.999999
0.999985
0.999955
0.999892
0.999999
0.999996
0.99999
1
1
1
1
1
1
1
1
1
1
1
1
1
1
1
1
1
1
1
1
1
1
1
1
0.999967
0.999967
0.999999
0.999994
0.999994
1
0.999967
0.999967
0.999994
1
0.999999
0.999994
0.998627
0.999443
0.999863
0.999863
0.998627
0.9642
0.992426
0.9082
0.908576
0.973427
0.985877
0.994434
0.998911
0.929181
0.960598
0.995303
0.995298
0.999247
0.999247
0.995344
0.995475
0.999253
0.999275
0.99577
0.995346
0.995277
0.999322
0.999244
0.999249
0.97864
0.995365
0.995431
0.999276
0.999915
0.999269
0.999262
0.999915
0.999272
0.949667
0.986986
0.999162
0.999842
0.998727
0.994989
0.999641
0.997484
0.854852
0.993013
0.998729
0.998454
0.998388
0.990434
0.999999
1
1
0.999997
1
1
1
1
1
1
1
1
1
1
1
1
1
1
1
1
1
1
1
1
1
1
1
1
1
1
1
1
1
0.999994
0.999967
0.999994
0.999967
0.999999
1
1
0.999967
0.999967
0.999999
0.999994
0.999994
0.998627
0.995599
0.999443
0.999863
0.999863
0.995599
0.998627
0.917188
0.982177
0.986207
0.999677
0.997907
0.998458
0.994731
0.999791
0.975986
0.994919
0.983969
0.99964
0.99984
0.999962
0.960434
0.989979
0.998398
0.999165
0.996961
0.996829
0.995915
0.995588
0.999176
0.999613
0.999563
0.999372
0.999311
0.977396
0.995086
0.999325
0.999912
0.999252
0.995336
0.999198
0.999249
0.955257
0.944666
0.999161
0.999106
0.969591
0.995017
0.999999
1
1
1
1
1
1
1
1
1
1
1
1
1
0.999993
1
1
1
1
1
1
1
1
0.999963
0.999993
0.999997
1
1
1
1
1
1
0.99981
0.999999
1
1
1
0.999999
1
1
1
1
1
0.999999
1
1
1
1
1
1
1
1
1
1
1
1
1
1
1
1
1
1
1
1
1
1
1
1
1
1
1
1
1
0.999967
0.999994
0.999967
1
0.999999
0.999994
1
0.999994
0.999967
0.999967
0.999999
0.999994
0.998627
0.995599
0.999443
0.999863
0.999863
0.998627
0.999998
0.999973
0.999999
0.999999
1
1
1
0.999864
0.999989
0.994572
0.999292
0.999281
0.999866
0.999866
0.999989
0.994581
0.999293
0.999293
1
1
1
1
1
1
1
1
1
0.999999
1
1
1
1
0.999992
0.999999
0.999993
0.981714
0.995746
0.999918
0.999319
0.981783
0.99588
1
1
1
1
1
1
1
1
1
1
1
1
1
1
1
1
1
1
1
1
1
1
1
1
1
1
1
1
1
1
1
1
1
1
1
1
1
1
1
1
1
0.999999
1
1
1
1
1
1
1
1
1
1