/*--------------------------------*- C++ -*----------------------------------*\
  =========                 |
  \\      /  F ield         | OpenFOAM: The Open Source CFD Toolbox
   \\    /   O peration     | Website:  https://openfoam.org
    \\  /    A nd           | Version:  10
     \\/     M anipulation  |
\*---------------------------------------------------------------------------*/
FoamFile
{
    format      ascii;
    class       volVectorField;
    location    "0";
    object      U;
}
// * * * * * * * * * * * * * * * * * * * * * * * * * * * * * * * * * * * * * //

dimensions      [0 1 -1 0 0 0 0];

internalField   nonuniform List<vector> 
8808
(
(0.385581 0.026533 5.18309e-06)
(0.377655 0.0459297 4.44131e-06)
(0.371923 0.0854075 4.16002e-06)
(0.37059 0.155192 4.58995e-06)
(0.39223 0.0284484 4.34985e-06)
(0.389498 0.0483859 3.64195e-06)
(0.390888 0.0843354 3.09783e-06)
(0.40968 0.135815 4.44969e-06)
(0.513535 0.197307 -3.60721e-06)
(0.577168 0.0737859 4.51037e-06)
(0.398945 0.029085 3.42291e-06)
(0.400722 0.0480891 2.94212e-06)
(0.413002 0.078552 2.84412e-06)
(0.447682 0.113518 3.09693e-06)
(0.50473 0.123824 6.83058e-06)
(0.550236 0.0682093 4.5542e-06)
(0.581194 0.0153166 7.64202e-06)
(0.504623 0.0797135 3.69687e-06)
(0.535326 0.0480641 4.7859e-06)
(0.38324 0.000152533 1.06699e-05)
(0.387479 0.00889954 7.89269e-06)
(0.386022 0.0162934 6.20867e-06)
(0.366835 0.0205622 3.84906e-06)
(0.357996 0.0230065 1.52276e-05)
(0.386699 -0.00534034 1.13629e-05)
(0.388272 0.00378637 9.26113e-06)
(0.386473 0.0109279 6.70032e-06)
(0.381899 0.0208728 4.82587e-06)
(0.368656 0.033001 3.75623e-06)
(0.343525 0.0623916 3.23405e-06)
(0.307375 0.139594 6.5202e-06)
(0.38945 -0.00785888 9.28965e-06)
(0.392798 -0.00217925 8.74137e-06)
(0.392126 0.00608767 6.80927e-06)
(0.390157 0.0150291 4.95999e-06)
(0.385579 0.0265316 3.65939e-06)
(0.377653 0.0459286 3.09687e-06)
(0.371922 0.0854066 2.90019e-06)
(0.370589 0.155192 3.08447e-06)
(0.394369 -0.00998115 8.9902e-06)
(0.396045 -0.00212432 7.36956e-06)
(0.395755 0.00642562 5.74835e-06)
(0.39459 0.0159617 4.1585e-06)
(0.392227 0.0284469 3.11717e-06)
(0.389495 0.0483853 2.64084e-06)
(0.390884 0.0843359 2.2704e-06)
(0.40968 0.135816 3.11669e-06)
(0.513534 0.197308 -4.2536e-06)
(0.577168 0.0737859 5.16774e-06)
(0.399016 -0.0108738 7.15332e-06)
(0.3996 -0.00215262 5.69791e-06)
(0.39954 0.00659427 4.4731e-06)
(0.39922 0.016393 3.2651e-06)
(0.398942 0.0290836 2.49151e-06)
(0.400719 0.0480891 2.17572e-06)
(0.412999 0.0785546 2.0972e-06)
(0.447682 0.11352 2.50253e-06)
(0.504733 0.123826 6.34169e-06)
(0.550239 0.0682097 5.49791e-06)
(0.581199 0.0153169 8.7796e-06)
(0.504626 0.0797148 3.74473e-06)
(0.535331 0.048065 5.45269e-06)
(0.339365 0.0318513 9.7257e-06)
(0.379956 0.00177097 7.0866e-06)
(0.383238 0.000151733 5.87428e-06)
(0.387477 0.00889924 4.69758e-06)
(0.386021 0.0162933 4.21932e-06)
(0.366835 0.0205621 2.77272e-06)
(0.357994 0.0230072 8.02067e-06)
(0.386698 -0.00534191 5.95481e-06)
(0.38827 0.00378531 5.02031e-06)
(0.386471 0.010927 3.90288e-06)
(0.381898 0.0208724 3.03865e-06)
(0.368655 0.0330006 2.5207e-06)
(0.343525 0.0623913 1.98064e-06)
(0.307375 0.139594 5.10294e-06)
(0.389449 -0.00786138 4.78556e-06)
(0.392796 -0.00218122 4.56173e-06)
(0.392125 0.00608604 3.66912e-06)
(0.390155 0.0150278 2.86233e-06)
(0.385577 0.0265308 2.21555e-06)
(0.377652 0.0459281 1.92353e-06)
(0.371921 0.0854061 1.86202e-06)
(0.370589 0.155193 1.72105e-06)
(0.394368 -0.00998433 4.56567e-06)
(0.396043 -0.0021269 3.85955e-06)
(0.395754 0.00642356 3.10765e-06)
(0.394588 0.0159602 2.3946e-06)
(0.392226 0.0284459 1.89495e-06)
(0.389494 0.0483848 1.65034e-06)
(0.390882 0.0843361 1.55322e-06)
(0.40968 0.135817 1.75346e-06)
(0.513537 0.197307 -5.6794e-06)
(0.57717 0.073786 4.66644e-06)
(0.399015 -0.0108776 3.81066e-06)
(0.399598 -0.00215563 2.98425e-06)
(0.399538 0.00659191 2.41307e-06)
(0.399218 0.0163914 1.87024e-06)
(0.398941 0.0290826 1.51056e-06)
(0.400717 0.048089 1.36398e-06)
(0.412998 0.0785559 1.44804e-06)
(0.447682 0.113521 1.891e-06)
(0.504736 0.123827 5.64285e-06)
(0.550241 0.0682104 4.76051e-06)
(0.504629 0.0797157 3.04681e-06)
(0.535334 0.0480654 4.61159e-06)
(0.339365 0.031852 5.56247e-06)
(0.379955 0.00177059 3.43553e-06)
(0.383237 0.000151534 2.91674e-06)
(0.387476 0.00889899 2.4133e-06)
(0.38602 0.0162931 2.61136e-06)
(0.366834 0.020562 1.49397e-06)
(0.357992 0.023008 3.86164e-06)
(0.386698 -0.00534275 2.73058e-06)
(0.388269 0.00378471 2.45329e-06)
(0.386471 0.0109265 1.89553e-06)
(0.381897 0.0208721 1.50505e-06)
(0.368655 0.0330003 1.30887e-06)
(0.343525 0.062391 7.56693e-07)
(0.307375 0.139594 3.86902e-06)
(0.389448 -0.00786252 2.15236e-06)
(0.392796 -0.00218219 2.00311e-06)
(0.392124 0.00608533 1.58243e-06)
(0.390155 0.0150271 1.2449e-06)
(0.385577 0.0265303 9.75043e-07)
(0.377651 0.0459277 8.5155e-07)
(0.371921 0.0854058 8.60699e-07)
(0.370589 0.155193 5.82848e-07)
(0.394368 -0.00998568 1.99216e-06)
(0.396042 -0.00212822 1.67576e-06)
(0.395753 0.00642253 1.3189e-06)
(0.394587 0.0159593 1.01314e-06)
(0.392225 0.0284453 8.0886e-07)
(0.389493 0.0483845 7.01129e-07)
(0.390881 0.0843362 7.33549e-07)
(0.40968 0.135818 6.04199e-07)
(0.513538 0.197307 -6.94152e-06)
(0.577172 0.0737862 3.50102e-06)
(0.399014 -0.0108794 1.69423e-06)
(0.399598 -0.0021572 1.24998e-06)
(0.399538 0.00659066 9.75325e-07)
(0.399217 0.0163904 7.39419e-07)
(0.39894 0.029082 5.96743e-07)
(0.400716 0.0480889 5.41719e-07)
(0.412998 0.0785565 6.27334e-07)
(0.447682 0.113521 1.08798e-06)
(0.504737 0.123828 4.14333e-06)
(0.550243 0.0682105 3.12859e-06)
(0.504631 0.0797159 1.81842e-06)
(0.535337 0.0480655 2.82336e-06)
(0.339364 0.0318522 2.73994e-06)
(0.379955 0.00177038 1.12128e-06)
(0.383237 0.000151544 9.37672e-07)
(0.387476 0.00889893 7.50831e-07)
(0.386019 0.016293 1.17918e-06)
(0.366834 0.020562 2.81513e-07)
(0.357992 0.0230083 1.22705e-06)
(0.386698 -0.00534328 6.93969e-07)
(0.388269 0.00378459 5.32516e-07)
(0.38647 0.0109263 3.36212e-07)
(0.381897 0.0208719 2.12754e-07)
(0.368655 0.0330003 1.38194e-07)
(0.343525 0.0623913 -4.03109e-07)
(0.307375 0.139593 2.41409e-06)
(0.389448 -0.00786294 2.71771e-07)
(0.392795 -0.00218259 1.89414e-07)
(0.392124 0.00608498 4.84775e-08)
(0.390155 0.0150268 -7.54616e-08)
(0.385577 0.02653 -1.56655e-07)
(0.377651 0.0459275 -1.98988e-07)
(0.371921 0.0854057 -1.94593e-07)
(0.370589 0.155193 -7.05195e-07)
(0.394367 -0.00998617 2.63335e-07)
(0.396042 -0.00212877 9.48102e-08)
(0.395753 0.00642207 -3.16703e-08)
(0.394587 0.0159589 -1.41026e-07)
(0.392225 0.028445 -2.07754e-07)
(0.389493 0.0483843 -2.47166e-07)
(0.39088 0.0843362 -2.14843e-07)
(0.40968 0.135818 -7.63711e-07)
(0.513539 0.197308 -8.4964e-06)
(0.577173 0.0737863 1.44816e-06)
(0.399014 -0.0108799 1.42313e-07)
(0.399597 -0.00215788 -3.03749e-08)
(0.399537 0.00659011 -1.35713e-07)
(0.399217 0.01639 -2.21923e-07)
(0.39894 0.0290818 -2.7213e-07)
(0.400716 0.0480888 -2.86941e-07)
(0.412998 0.0785567 -2.48654e-07)
(0.447682 0.113522 -1.15684e-07)
(0.504737 0.123828 2.51771e-06)
(0.550244 0.0682102 9.12758e-07)
(0.504632 0.079716 2.38429e-07)
(0.535338 0.0480654 6.49651e-07)
(0.339364 0.0318523 6.03223e-07)
(0.379955 0.00177036 -7.22695e-07)
(0.383237 0.000151559 -7.20456e-07)
(0.387475 0.00889892 -7.04286e-07)
(0.386019 0.016293 -6.71473e-08)
(0.366834 0.020562 -8.21199e-07)
(0.357992 0.0230085 -9.6689e-07)
(0.386698 -0.00534331 -1.02203e-06)
(0.388269 0.00378456 -1.05247e-06)
(0.38647 0.0109263 -1.04311e-06)
(0.381897 0.0208719 -9.71119e-07)
(0.368655 0.0330002 -9.0998e-07)
(0.343525 0.0623909 -1.35879e-06)
(0.307375 0.139594 1.61027e-06)
(0.389448 -0.00786293 -1.47667e-06)
(0.392795 -0.00218259 -1.43128e-06)
(0.392124 0.00608498 -1.36003e-06)
(0.390155 0.0150268 -1.31475e-06)
(0.385577 0.02653 -1.30253e-06)
(0.377651 0.0459276 -1.31159e-06)
(0.371921 0.0854058 -1.32019e-06)
(0.370589 0.155193 -1.83133e-06)
(0.394367 -0.00998617 -1.46499e-06)
(0.396042 -0.00212877 -1.332e-06)
(0.395753 0.00642208 -1.26988e-06)
(0.394587 0.015959 -1.23594e-06)
(0.392225 0.028445 -1.23257e-06)
(0.389493 0.0483843 -1.23856e-06)
(0.39088 0.0843362 -1.27543e-06)
(0.409681 0.135818 -1.83929e-06)
(0.513539 0.197308 -1.0067e-05)
(0.399014 -0.0108799 -1.33444e-06)
(0.399597 -0.00215787 -1.19784e-06)
(0.399537 0.00659012 -1.15664e-06)
(0.399217 0.01639 -1.13659e-06)
(0.39894 0.0290818 -1.14442e-06)
(0.400716 0.0480889 -1.1688e-06)
(0.412998 0.0785567 -1.21028e-06)
(0.447682 0.113522 -1.29385e-06)
(0.504737 0.123828 1.00039e-06)
(0.504632 0.079716 -1.53024e-06)
(0.339364 0.0318522 -1.69271e-06)
(0.379955 0.00177039 -2.60222e-06)
(0.383237 0.000151632 -2.46217e-06)
(0.387476 0.00889896 -2.23976e-06)
(0.386019 0.0162931 -1.37681e-06)
(0.366834 0.020562 -2.02681e-06)
(0.386698 -0.00534307 -2.79318e-06)
(0.388269 0.00378478 -2.78286e-06)
(0.38647 0.0109265 -2.51215e-06)
(0.381897 0.020872 -2.23826e-06)
(0.368655 0.0330004 -2.13672e-06)
(0.343525 0.0623914 -2.63881e-06)
(0.307375 0.139593 -3.79377e-09)
(0.392124 0.00608536 -2.90579e-06)
(0.390155 0.0150272 -2.67711e-06)
(0.385577 0.0265303 -2.49953e-06)
(0.377651 0.0459278 -2.44312e-06)
(0.371921 0.0854059 -2.49471e-06)
(0.370589 0.155193 -3.20832e-06)
(0.395753 0.00642257 -2.62785e-06)
(0.394587 0.0159594 -2.42381e-06)
(0.392225 0.0284454 -2.30513e-06)
(0.389493 0.0483846 -2.26328e-06)
(0.390881 0.0843363 -2.32942e-06)
(0.409681 0.135818 -3.19797e-06)
(0.387476 0.00889908 -4.0897e-06)
(0.38602 0.0162931 -2.91922e-06)
(0.366834 0.0205621 -3.37956e-06)
(0.386471 0.0109269 -4.31669e-06)
(0.381897 0.0208724 -3.78723e-06)
(0.368655 0.0330006 -3.45191e-06)
(0.343525 0.0623916 -3.91169e-06)
(0.307375 0.139593 -1.39959e-06)
(0.390155 0.0150279 -4.3758e-06)
(0.385577 0.0265309 -3.88379e-06)
(0.377652 0.0459282 -3.67082e-06)
(0.371921 0.0854062 -3.68996e-06)
(0.370589 0.155193 -4.61101e-06)
(0.394588 0.0159603 -3.87958e-06)
(0.392226 0.028446 -3.51366e-06)
(0.389494 0.048385 -3.36548e-06)
(0.390881 0.0843364 -3.34164e-06)
(0.40968 0.135818 -4.47933e-06)
(0.38602 0.0162933 -4.9352e-06)
(0.366834 0.0205622 -4.93831e-06)
(0.381898 0.0208729 -5.64985e-06)
(0.368655 0.0330012 -4.96797e-06)
(0.343525 0.0623919 -5.41615e-06)
(0.307375 0.139594 -2.66473e-06)
(0.385578 0.0265319 -5.56987e-06)
(0.377652 0.0459289 -5.16487e-06)
(0.371922 0.0854068 -5.0897e-06)
(0.370588 0.155193 -6.21114e-06)
(0.392227 0.0284472 -4.95578e-06)
(0.389495 0.0483856 -4.61662e-06)
(0.390883 0.0843363 -4.40604e-06)
(0.40968 0.135817 -6.23947e-06)
(0.366835 0.0205624 -6.85616e-06)
(0.368656 0.0330019 -6.79489e-06)
(0.343525 0.0623927 -7.31612e-06)
(0.307374 0.139594 -4.62181e-06)
(0.377654 0.0459302 -6.95876e-06)
(0.371923 0.0854079 -7.01711e-06)
(0.370589 0.155192 -8.16441e-06)
(0.390888 0.0843361 -5.81013e-06)
(0.409681 0.135816 -8.03933e-06)
(0.343525 0.0623948 -1.08216e-05)
(0.307374 0.139594 -8.24597e-06)
(0.371925 0.0854096 -1.07166e-05)
(0.370591 0.155192 -1.19455e-05)
(0.390896 0.0843351 -8.42436e-06)
(0.409683 0.135815 -1.13467e-05)
(0.513536 0.197306 -1.71608e-05)
(0.343523 0.0623979 -1.79055e-05)
(0.307373 0.139595 -1.71817e-05)
(0.37193 0.0854131 -1.85992e-05)
(0.370596 0.155192 -2.07472e-05)
(0.39091 0.0843331 -1.44757e-05)
(0.409688 0.135809 -1.95857e-05)
(0.513536 0.197305 -2.05445e-05)
(0.343511 0.0623964 -2.25178e-05)
(0.307375 0.139596 -4.51174e-05)
(0.370626 0.155191 -3.74709e-05)
(0.409708 0.135784 -2.2494e-05)
(0.513543 0.197304 -2.8287e-05)
(0.577167 0.0737859 3.29517e-06)
(0.549929 0.0689812 3.0584e-06)
(0.577831 0.068842 -6.18011e-06)
(0.386023 0.0162934 5.16185e-06)
(0.372019 0.0181381 4.20908e-06)
(0.380343 0.0192343 5.89839e-06)
(0.375122 0.0216531 4.99196e-06)
(0.366835 0.0205621 3.81078e-06)
(0.381796 0.044416 4.09798e-06)
(0.364783 0.0277454 4.51583e-06)
(0.350142 0.0403854 4.24055e-06)
(0.339771 0.0584539 5.18326e-06)
(0.296486 0.0952654 3.69322e-06)
(0.280324 0.135701 3.71488e-06)
(0.307374 0.139593 1.95488e-06)
(0.348037 0.161445 4.72094e-06)
(0.407596 0.238301 6.92013e-06)
(0.388254 0.146783 -9.2547e-06)
(0.430154 0.193823 3.46917e-06)
(0.370589 0.155192 5.44546e-06)
(0.407597 0.238301 3.40693e-06)
(0.388254 0.146783 1.8881e-05)
(0.430154 0.193823 6.53958e-06)
(0.523975 0.241516 2.67722e-05)
(0.523976 0.241516 -1.67174e-05)
(0.603606 0.0888864 7.02398e-06)
(0.52021 0.142493 4.87601e-06)
(0.548519 0.0991895 4.61165e-06)
(0.513534 0.197307 1.29271e-05)
(0.603605 0.0888861 2.56741e-06)
(0.520212 0.142494 4.367e-06)
(0.548519 0.0991896 4.74306e-06)
(0.54993 0.0689812 4.62883e-06)
(0.577833 0.0688414 1.45274e-05)
(0.577168 0.0737857 5.31845e-06)
(0.54993 0.0689813 5.37933e-06)
(0.577834 0.0688423 -3.2262e-06)
(0.59983 0.0330263 1.07512e-05)
(0.599834 0.0330262 5.41525e-06)
(0.343091 0.0179773 9.76817e-06)
(0.370827 0.0032669 8.65237e-06)
(0.379702 0.00424277 8.2425e-06)
(0.386568 -0.00449829 7.18467e-06)
(0.38144 -0.00129653 1.07454e-05)
(0.386679 0.00948155 8.55512e-06)
(0.381438 -0.00129689 6.70306e-06)
(0.386678 0.00948137 5.61219e-06)
(0.388588 0.00943655 7.89851e-06)
(0.388587 0.00943643 5.21038e-06)
(0.339366 0.0318514 8.40836e-06)
(0.371591 -0.000801077 8.58249e-06)
(0.362237 0.0130651 1.06612e-05)
(0.366886 -0.0128569 9.09525e-06)
(0.379956 0.00177123 8.1166e-06)
(0.386568 -0.00273115 7.1825e-06)
(0.383168 -0.00295133 8.5942e-06)
(0.387094 -0.000865883 7.96697e-06)
(0.386535 0.0089797 8.57285e-06)
(0.386561 0.00338047 9.53623e-06)
(0.386638 0.00782687 8.18811e-06)
(0.383238 0.000151952 6.62042e-06)
(0.386534 0.00897942 5.5067e-06)
(0.38656 0.0033801 7.16316e-06)
(0.386637 0.00782651 6.22452e-06)
(0.404088 0.0175706 7.64562e-06)
(0.384845 0.00934015 6.90816e-06)
(0.382285 0.015486 5.77639e-06)
(0.387477 0.00889937 5.1463e-06)
(0.404087 0.0175705 2.46182e-06)
(0.384844 0.00933989 5.37805e-06)
(0.382284 0.0154857 4.56992e-06)
(0.372019 0.0181385 4.10877e-06)
(0.380342 0.0192339 4.87336e-06)
(0.375122 0.0216529 4.12114e-06)
(0.386021 0.0162933 3.07786e-06)
(0.372018 0.0181385 3.09638e-06)
(0.380341 0.0192338 3.92808e-06)
(0.375121 0.0216529 3.41352e-06)
(0.381796 0.0444159 4.04432e-06)
(0.364783 0.0277451 3.7215e-06)
(0.350142 0.0403848 3.62724e-06)
(0.366835 0.0205622 2.97429e-06)
(0.381796 0.0444158 2.66274e-06)
(0.364783 0.0277451 3.1138e-06)
(0.350142 0.0403848 3.07272e-06)
(0.33977 0.0584535 3.02269e-06)
(0.296486 0.0952663 4.40829e-06)
(0.33977 0.0584533 3.68108e-06)
(0.296487 0.0952651 2.26787e-06)
(0.280325 0.135701 4.69535e-06)
(0.280325 0.135701 2.34109e-06)
(0.348038 0.161445 3.8931e-06)
(0.307375 0.139593 5.88762e-07)
(0.348038 0.161445 3.31896e-06)
(0.407597 0.238301 5.48093e-06)
(0.388254 0.146784 -1.04278e-05)
(0.430154 0.193823 2.0837e-06)
(0.370588 0.155193 4.11984e-06)
(0.407597 0.238301 2.11207e-06)
(0.388254 0.146784 1.76176e-05)
(0.430154 0.193823 5.15337e-06)
(0.523976 0.241516 2.57249e-05)
(0.523975 0.241517 -1.72327e-05)
(0.603606 0.0888859 7.22863e-06)
(0.520213 0.142494 4.40072e-06)
(0.54852 0.09919 4.79019e-06)
(0.513536 0.197306 1.21966e-05)
(0.603606 0.0888862 2.15002e-06)
(0.520214 0.142494 3.97177e-06)
(0.548521 0.0991903 4.50372e-06)
(0.549931 0.0689813 5.47387e-06)
(0.577835 0.0688432 1.68958e-05)
(0.57717 0.0737859 4.87155e-06)
(0.549932 0.0689815 5.3246e-06)
(0.577839 0.0688441 -2.79675e-06)
(0.599835 0.0330264 1.1466e-05)
(0.599838 0.0330268 5.39726e-06)
(0.343091 0.0179771 8.32769e-06)
(0.370826 0.00326673 7.28578e-06)
(0.343091 0.0179777 5.02143e-06)
(0.370826 0.00326652 4.24352e-06)
(0.379701 0.00424262 7.06014e-06)
(0.386567 -0.00449836 6.08415e-06)
(0.379701 0.00424251 4.03954e-06)
(0.386567 -0.00449843 3.71644e-06)
(0.381438 -0.00129706 5.86649e-06)
(0.386678 0.00948129 4.98086e-06)
(0.381437 -0.00129707 3.47319e-06)
(0.386677 0.00948121 2.89543e-06)
(0.388586 0.00943635 4.68893e-06)
(0.388586 0.00943632 2.69856e-06)
(0.37159 -0.000801423 7.20205e-06)
(0.362236 0.0130652 7.57155e-06)
(0.366885 -0.0128582 6.56897e-06)
(0.339365 0.031852 3.60793e-06)
(0.37159 -0.000801795 4.21852e-06)
(0.362236 0.0130656 5.37853e-06)
(0.366885 -0.0128588 4.50065e-06)
(0.386567 -0.00273125 6.00585e-06)
(0.383167 -0.002952 6.18408e-06)
(0.387093 -0.000866431 5.7409e-06)
(0.379955 0.00177074 3.94659e-06)
(0.386567 -0.0027314 3.76156e-06)
(0.383167 -0.00295231 4.29123e-06)
(0.387093 -0.000866701 4.04759e-06)
(0.386533 0.00897928 5.03876e-06)
(0.386559 0.00337963 5.19382e-06)
(0.386636 0.00782613 4.60819e-06)
(0.383237 0.000151641 3.42229e-06)
(0.386533 0.00897915 2.79437e-06)
(0.386559 0.0033794 3.70844e-06)
(0.386635 0.00782592 3.3118e-06)
(0.404087 0.0175706 5.41809e-06)
(0.384844 0.00933952 4.02968e-06)
(0.382284 0.0154854 3.52299e-06)
(0.387476 0.00889911 2.63574e-06)
(0.404086 0.0175705 6.36183e-07)
(0.384843 0.00933931 2.93557e-06)
(0.382283 0.0154852 2.56372e-06)
(0.372018 0.0181384 2.91738e-06)
(0.380341 0.0192336 3.0632e-06)
(0.375121 0.0216527 2.67779e-06)
(0.38602 0.0162932 1.40647e-06)
(0.372018 0.0181383 1.76108e-06)
(0.38034 0.0192336 2.28039e-06)
(0.375121 0.0216526 2.05395e-06)
(0.381796 0.0444158 2.71689e-06)
(0.364783 0.0277449 2.48736e-06)
(0.350142 0.0403846 2.38177e-06)
(0.366834 0.0205621 1.69063e-06)
(0.381796 0.0444157 1.51299e-06)
(0.364782 0.0277448 1.87268e-06)
(0.350142 0.0403846 1.83241e-06)
(0.33977 0.0584531 1.79686e-06)
(0.296487 0.0952661 3.06156e-06)
(0.33977 0.0584529 2.48723e-06)
(0.296487 0.0952649 8.75642e-07)
(0.280325 0.135701 3.25411e-06)
(0.280325 0.135701 9.42863e-07)
(0.348039 0.161445 2.56763e-06)
(0.307375 0.139594 -7.63356e-07)
(0.348039 0.161445 2.01115e-06)
(0.407597 0.238301 4.2637e-06)
(0.388254 0.146784 -1.17774e-05)
(0.430154 0.193823 9.65996e-07)
(0.370589 0.155193 2.81847e-06)
(0.407597 0.238301 8.3189e-07)
(0.388254 0.146784 1.63002e-05)
(0.430155 0.193823 4.23107e-06)
(0.523975 0.241517 2.4287e-05)
(0.523976 0.241517 -1.85675e-05)
(0.603607 0.0888861 6.71316e-06)
(0.520215 0.142494 3.72028e-06)
(0.548522 0.0991904 3.97689e-06)
(0.513538 0.197307 1.14002e-05)
(0.603608 0.0888863 9.11051e-07)
(0.520215 0.142495 2.58175e-06)
(0.548522 0.0991906 3.27759e-06)
(0.549933 0.0689816 4.67977e-06)
(0.577839 0.0688436 1.57496e-05)
(0.577172 0.0737862 3.71741e-06)
(0.549933 0.0689818 4.04127e-06)
(0.577841 0.0688445 -4.99817e-06)
(0.34309 0.0179776 4.22936e-06)
(0.370826 0.00326645 3.46445e-06)
(0.34309 0.0179778 1.86431e-06)
(0.370825 0.00326629 1.57623e-06)
(0.379701 0.00424241 3.39645e-06)
(0.386567 -0.00449847 2.93573e-06)
(0.3797 0.00424233 1.45753e-06)
(0.386566 -0.00449846 1.41506e-06)
(0.381437 -0.0012972 2.87977e-06)
(0.386677 0.00948117 2.5316e-06)
(0.381437 -0.00129703 1.25268e-06)
(0.386676 0.00948114 9.83045e-07)
(0.388585 0.00943621 2.39354e-06)
(0.388585 0.00943617 8.85872e-07)
(0.37159 -0.000801952 3.41421e-06)
(0.362235 0.0130657 3.62891e-06)
(0.366884 -0.0128595 3.04198e-06)
(0.339364 0.0318522 5.0261e-07)
(0.371589 -0.000802222 1.56908e-06)
(0.362235 0.0130658 2.21139e-06)
(0.366884 -0.0128599 1.71073e-06)
(0.386566 -0.00273146 2.86798e-06)
(0.383167 -0.00295266 2.86513e-06)
(0.387093 -0.000866916 2.71435e-06)
(0.379955 0.00177043 1.3755e-06)
(0.386566 -0.00273148 1.47467e-06)
(0.383167 -0.00295288 1.66004e-06)
(0.387092 -0.000866982 1.61744e-06)
(0.386532 0.00897909 2.60705e-06)
(0.386559 0.00337922 2.49964e-06)
(0.386635 0.00782576 2.24151e-06)
(0.383237 0.000151615 1.21673e-06)
(0.386532 0.00897904 8.87593e-07)
(0.386558 0.00337923 1.49513e-06)
(0.386635 0.00782571 1.31051e-06)
(0.404086 0.0175704 3.66381e-06)
(0.384843 0.00933917 1.93946e-06)
(0.382283 0.0154851 1.70259e-06)
(0.387476 0.00889896 8.41035e-07)
(0.404086 0.0175702 -9.82784e-07)
(0.384843 0.00933914 1.13446e-06)
(0.382283 0.0154851 9.67024e-07)
(0.372017 0.0181383 1.56811e-06)
(0.38034 0.0192334 1.5158e-06)
(0.37512 0.0216525 1.32561e-06)
(0.386019 0.016293 -9.67977e-08)
(0.372017 0.0181383 4.8147e-07)
(0.38034 0.0192333 8.31061e-07)
(0.37512 0.0216524 7.41681e-07)
(0.381796 0.0444157 1.5109e-06)
(0.364782 0.0277447 1.23676e-06)
(0.350142 0.0403845 1.11768e-06)
(0.366834 0.0205621 4.55362e-07)
(0.381796 0.0444158 2.02503e-07)
(0.364782 0.0277447 6.51161e-07)
(0.350142 0.0403845 6.11241e-07)
(0.33977 0.0584528 5.48734e-07)
(0.296486 0.0952664 1.71012e-06)
(0.33977 0.0584532 1.1713e-06)
(0.296488 0.0952643 5.60155e-07)
(0.280325 0.135702 1.97607e-06)
(0.280325 0.1357 4.8706e-07)
(0.348039 0.161446 1.42302e-06)
(0.307375 0.139593 -1.52515e-06)
(0.348039 0.161445 9.05083e-07)
(0.407597 0.238301 3.04791e-06)
(0.388255 0.146784 -1.30397e-05)
(0.430155 0.193824 -2.02485e-07)
(0.370589 0.155193 1.69441e-06)
(0.407597 0.238301 -2.73114e-07)
(0.388254 0.146784 1.51478e-05)
(0.430156 0.193824 2.72912e-06)
(0.523976 0.241517 2.29838e-05)
(0.523976 0.241518 -1.98574e-05)
(0.603608 0.0888865 5.53645e-06)
(0.520216 0.142495 2.23078e-06)
(0.548523 0.0991906 2.53779e-06)
(0.513539 0.197308 1.00775e-05)
(0.603609 0.0888866 -1.21977e-06)
(0.520217 0.142495 9.79079e-07)
(0.548524 0.0991907 1.66937e-06)
(0.549934 0.0689818 3.2143e-06)
(0.577842 0.0688438 1.32818e-05)
(0.577173 0.0737859 1.59374e-06)
(0.549935 0.0689815 2.11631e-06)
(0.577843 0.068844 -7.15126e-06)
(0.34309 0.0179778 1.40336e-06)
(0.370825 0.00326625 1.06533e-06)
(0.34309 0.0179778 -4.13374e-07)
(0.370825 0.00326623 -3.77266e-07)
(0.3797 0.00424229 1.06448e-06)
(0.386566 -0.00449848 8.43029e-07)
(0.3797 0.00424227 -4.39485e-07)
(0.386566 -0.00449849 -3.82156e-07)
(0.381437 -0.0012971 9.29799e-07)
(0.386676 0.00948113 7.57095e-07)
(0.381437 -0.00129703 -5.32628e-07)
(0.386676 0.00948111 -5.74992e-07)
(0.388585 0.00943617 7.09321e-07)
(0.388585 0.00943617 -6.04434e-07)
(0.371589 -0.000802301 1.03809e-06)
(0.362235 0.0130659 1.00189e-06)
(0.366884 -0.0128602 8.3659e-07)
(0.339364 0.0318523 -1.76958e-06)
(0.371589 -0.00080235 -3.67511e-07)
(0.362235 0.013066 -7.52926e-08)
(0.366884 -0.0128603 -2.00641e-07)
(0.386566 -0.00273151 7.68497e-07)
(0.383166 -0.00295304 7.3624e-07)
(0.387092 -0.000867078 6.60123e-07)
(0.379955 0.00177036 -5.06971e-07)
(0.386566 -0.00273152 -3.10615e-07)
(0.383166 -0.00295307 -2.01176e-07)
(0.387092 -0.000867104 -2.06109e-07)
(0.386532 0.00897902 8.40255e-07)
(0.386558 0.00337911 5.7118e-07)
(0.386635 0.00782561 4.75565e-07)
(0.383237 0.000151568 -5.44107e-07)
(0.386532 0.00897899 -6.64977e-07)
(0.386558 0.00337908 -2.37831e-07)
(0.386635 0.00782559 -2.90952e-07)
(0.404086 0.0175702 2.17795e-06)
(0.384843 0.00933907 3.55239e-07)
(0.382283 0.015485 2.82286e-07)
(0.387475 0.00889893 -6.51327e-07)
(0.404086 0.0175702 -2.31096e-06)
(0.384843 0.00933906 -3.21152e-07)
(0.382283 0.015485 -3.80707e-07)
(0.372017 0.0181383 3.26087e-07)
(0.38034 0.0192332 1.86499e-07)
(0.37512 0.0216524 9.49015e-08)
(0.386019 0.016293 -1.37785e-06)
(0.372017 0.0181383 -6.80344e-07)
(0.38034 0.0192332 -4.18589e-07)
(0.37512 0.0216523 -4.33781e-07)
(0.381796 0.0444158 3.60481e-07)
(0.364782 0.0277447 6.23595e-08)
(0.350142 0.0403845 -2.82596e-08)
(0.366834 0.020562 -6.71415e-07)
(0.381796 0.0444158 -7.78743e-07)
(0.364782 0.0277446 -4.81486e-07)
(0.350142 0.0403844 -4.59008e-07)
(0.33977 0.0584531 -5.8106e-07)
(0.296488 0.0952643 2.0354e-07)
(0.33977 0.0584529 1.65007e-07)
(0.296487 0.095265 -1.17504e-06)
(0.280325 0.1357 3.57739e-07)
(0.280325 0.135701 -1.24099e-06)
(0.348039 0.161445 9.59026e-08)
(0.307375 0.139594 -3.0419e-06)
(0.348039 0.161446 -4.50874e-07)
(0.407598 0.238301 1.66885e-06)
(0.388255 0.146784 -1.41718e-05)
(0.430156 0.193824 -1.42083e-06)
(0.370589 0.155193 3.74343e-07)
(0.407598 0.238301 -1.76442e-06)
(0.388255 0.146785 1.37973e-05)
(0.430156 0.193824 1.45266e-06)
(0.523976 0.241518 2.15535e-05)
(0.523976 0.241518 -2.14442e-05)
(0.60361 0.0888866 3.7823e-06)
(0.520218 0.142495 7.52365e-07)
(0.548524 0.0991906 8.07794e-07)
(0.513539 0.197308 8.58628e-06)
(0.603609 0.0888862 -3.11556e-06)
(0.520218 0.142495 -5.89005e-07)
(0.548524 0.0991904 -2.25529e-07)
(0.549935 0.0689816 9.31918e-07)
(0.577844 0.0688437 1.08625e-05)
(0.577173 0.0737857 -4.93752e-07)
(0.549936 0.0689817 -5.03206e-08)
(0.577844 0.0688442 -9.8674e-06)
(0.34309 0.0179778 -7.41936e-07)
(0.370825 0.00326621 -8.35803e-07)
(0.34309 0.0179778 -2.55954e-06)
(0.370825 0.00326624 -2.25566e-06)
(0.3797 0.00424227 -7.91252e-07)
(0.386566 -0.00449849 -8.72063e-07)
(0.3797 0.00424224 -2.24795e-06)
(0.386566 -0.00449848 -2.12202e-06)
(0.381437 -0.00129704 -7.21007e-07)
(0.386676 0.00948111 -7.6034e-07)
(0.381437 -0.00129702 -2.2485e-06)
(0.386676 0.00948113 -2.11356e-06)
(0.388585 0.00943616 -7.49396e-07)
(0.388585 0.00943616 -2.09186e-06)
(0.371589 -0.00080236 -8.45928e-07)
(0.362235 0.013066 -1.11264e-06)
(0.366884 -0.0128603 -1.00614e-06)
(0.339364 0.0318522 -3.91558e-06)
(0.371589 -0.000802317 -2.23181e-06)
(0.362235 0.0130659 -2.20481e-06)
(0.366884 -0.0128602 -2.04042e-06)
(0.386566 -0.00273153 -9.46498e-07)
(0.383166 -0.00295307 -1.02677e-06)
(0.387092 -0.000867109 -1.05147e-06)
(0.379955 0.00177034 -2.31567e-06)
(0.386566 -0.00273151 -2.04603e-06)
(0.383166 -0.00295306 -1.95749e-06)
(0.387092 -0.000867082 -1.92022e-06)
(0.386532 0.00897898 -6.71706e-07)
(0.386558 0.00337908 -1.05394e-06)
(0.386635 0.00782558 -1.04035e-06)
(0.383237 0.000151588 -2.24327e-06)
(0.386532 0.00897902 -2.19576e-06)
(0.386558 0.00337911 -1.86875e-06)
(0.386635 0.00782562 -1.81492e-06)
(0.404085 0.0175702 8.7385e-07)
(0.384842 0.00933905 -1.04804e-06)
(0.382283 0.015485 -1.0283e-06)
(0.387475 0.00889893 -2.131e-06)
(0.404086 0.0175702 -3.61993e-06)
(0.384843 0.00933907 -1.73987e-06)
(0.382283 0.015485 -1.70293e-06)
(0.372017 0.0181383 -8.11706e-07)
(0.38034 0.0192332 -1.02338e-06)
(0.37512 0.0216524 -1.03862e-06)
(0.386019 0.016293 -2.63876e-06)
(0.372017 0.0181382 -1.82156e-06)
(0.38034 0.0192332 -1.64329e-06)
(0.37512 0.0216524 -1.5835e-06)
(0.381796 0.0444157 -6.78491e-07)
(0.364782 0.0277446 -1.01273e-06)
(0.350142 0.0403844 -1.0436e-06)
(0.366834 0.020562 -1.81018e-06)
(0.381796 0.0444158 -1.96832e-06)
(0.364782 0.0277447 -1.58974e-06)
(0.350142 0.0403845 -1.54371e-06)
(0.33977 0.0584528 -1.5809e-06)
(0.296487 0.095266 -3.07945e-07)
(0.33977 0.0584532 -1.0264e-06)
(0.296488 0.0952643 -1.89961e-06)
(0.280326 0.135701 -1.97323e-07)
(0.280325 0.1357 -2.03756e-06)
(0.348039 0.161446 -1.00962e-06)
(0.307375 0.139593 -4.03109e-06)
(0.348039 0.161445 -1.58811e-06)
(0.407598 0.238301 2.87968e-07)
(0.388255 0.146785 -1.5246e-05)
(0.430156 0.193824 -2.87701e-06)
(0.370589 0.155193 -7.74681e-07)
(0.407598 0.238301 -3.02979e-06)
(0.388255 0.146784 1.27023e-05)
(0.430156 0.193824 1.54878e-08)
(0.523976 0.241518 1.99215e-05)
(0.523976 0.241518 -2.2794e-05)
(0.60361 0.0888864 1.5938e-06)
(0.520218 0.142495 -7.80006e-07)
(0.548524 0.0991906 -1.10858e-06)
(0.513539 0.197308 7.2156e-06)
(0.603609 0.0888864 -4.95471e-06)
(0.520218 0.142495 -2.05508e-06)
(0.548524 0.0991907 -2.01574e-06)
(0.34309 0.0179777 -3.03591e-06)
(0.370825 0.00326626 -2.78443e-06)
(0.3797 0.00424228 -2.68744e-06)
(0.386566 -0.00449847 -2.67389e-06)
(0.381437 -0.00129698 -2.46139e-06)
(0.386676 0.00948114 -2.34887e-06)
(0.381437 -0.00129703 -4.29169e-06)
(0.386676 0.00948117 -3.94256e-06)
(0.388585 0.00943618 -2.2883e-06)
(0.388585 0.00943622 -3.82757e-06)
(0.371589 -0.000802253 -2.77991e-06)
(0.386566 -0.00273148 -2.73609e-06)
(0.383166 -0.00295291 -2.89105e-06)
(0.387092 -0.000866982 -2.88703e-06)
(0.386532 0.00897905 -2.25436e-06)
(0.386558 0.00337921 -2.80541e-06)
(0.386635 0.00782572 -2.67264e-06)
(0.383237 0.000151631 -4.28933e-06)
(0.386532 0.0089791 -4.01808e-06)
(0.386559 0.00337923 -3.82541e-06)
(0.386635 0.00782576 -3.62436e-06)
(0.404086 0.0175702 -4.73553e-07)
(0.384843 0.00933914 -2.54747e-06)
(0.382283 0.0154851 -2.41918e-06)
(0.387476 0.008899 -3.85442e-06)
(0.404086 0.0175702 -5.14674e-06)
(0.384843 0.0093392 -3.38957e-06)
(0.382283 0.0154851 -3.21208e-06)
(0.372017 0.0181383 -2.03718e-06)
(0.38034 0.0192333 -2.32528e-06)
(0.37512 0.0216524 -2.28247e-06)
(0.38602 0.0162931 -4.10226e-06)
(0.372017 0.0181383 -3.19821e-06)
(0.38034 0.0192334 -3.05755e-06)
(0.37512 0.0216525 -2.93012e-06)
(0.381796 0.0444158 -1.87958e-06)
(0.364782 0.0277447 -2.23924e-06)
(0.350142 0.0403846 -2.26615e-06)
(0.366834 0.0205621 -3.14544e-06)
(0.381796 0.0444158 -3.23253e-06)
(0.364782 0.0277447 -2.88332e-06)
(0.350142 0.0403846 -2.81646e-06)
(0.33977 0.0584531 -2.8511e-06)
(0.296488 0.0952644 -2.13423e-06)
(0.33977 0.0584533 -2.27315e-06)
(0.296488 0.0952643 -3.18236e-06)
(0.280325 0.1357 -2.02036e-06)
(0.280325 0.1357 -3.36933e-06)
(0.348039 0.161445 -2.40592e-06)
(0.307375 0.139593 -5.39152e-06)
(0.348039 0.161445 -3.0414e-06)
(0.407598 0.238301 -1.11892e-06)
(0.388255 0.146785 -1.66642e-05)
(0.430156 0.193824 -4.19798e-06)
(0.370589 0.155193 -2.20435e-06)
(0.407597 0.238301 -4.70852e-06)
(0.388255 0.146784 1.14239e-05)
(0.430155 0.193824 -1.41553e-06)
(0.523976 0.241517 1.85509e-05)
(0.523976 0.241517 -2.47392e-05)
(0.388585 0.00943625 -4.14353e-06)
(0.404086 0.0175703 -2.07227e-06)
(0.384843 0.0093394 -4.41108e-06)
(0.382283 0.0154853 -4.11416e-06)
(0.404086 0.0175704 -7.20843e-06)
(0.382283 0.0154855 -5.12635e-06)
(0.372017 0.0181384 -3.43266e-06)
(0.38034 0.0192336 -3.887e-06)
(0.37512 0.0216526 -3.71811e-06)
(0.38602 0.0162932 -6.02021e-06)
(0.372018 0.0181384 -4.70436e-06)
(0.380341 0.0192336 -4.76825e-06)
(0.375121 0.0216527 -4.45339e-06)
(0.381796 0.0444158 -3.14405e-06)
(0.364782 0.0277449 -3.57918e-06)
(0.350142 0.0403847 -3.5574e-06)
(0.366834 0.0205621 -4.61292e-06)
(0.381795 0.0444158 -4.56804e-06)
(0.364782 0.0277449 -4.30617e-06)
(0.350142 0.0403847 -4.19054e-06)
(0.33977 0.0584531 -4.12368e-06)
(0.296487 0.0952643 -3.5019e-06)
(0.33977 0.0584534 -3.59063e-06)
(0.296487 0.095265 -5.08903e-06)
(0.280325 0.1357 -3.40785e-06)
(0.280325 0.135701 -5.23866e-06)
(0.348039 0.161446 -3.8476e-06)
(0.307375 0.139594 -7.06921e-06)
(0.348039 0.161446 -4.52578e-06)
(0.407597 0.238301 -2.66231e-06)
(0.388254 0.146785 -1.80573e-05)
(0.430155 0.193824 -6.00291e-06)
(0.370589 0.155193 -3.64586e-06)
(0.407597 0.238301 -6.20647e-06)
(0.388254 0.146785 9.88563e-06)
(0.430154 0.193823 -2.85112e-06)
(0.523976 0.241517 1.66945e-05)
(0.523975 0.241517 -2.61123e-05)
(0.372018 0.0181384 -5.05977e-06)
(0.380341 0.0192339 -5.79365e-06)
(0.375121 0.021653 -5.3843e-06)
(0.372018 0.0181385 -6.50491e-06)
(0.375121 0.0216531 -6.32728e-06)
(0.381795 0.0444158 -4.6217e-06)