/*--------------------------------*- C++ -*----------------------------------*\
  =========                 |
  \\      /  F ield         | OpenFOAM: The Open Source CFD Toolbox
   \\    /   O peration     | Website:  https://openfoam.org
    \\  /    A nd           | Version:  10
     \\/     M anipulation  |
\*---------------------------------------------------------------------------*/
FoamFile
{
    format      ascii;
    class       volScalarField;
    location    "2000";
    object      k;
}
// * * * * * * * * * * * * * * * * * * * * * * * * * * * * * * * * * * * * * //

dimensions      [0 2 -2 0 0 0 0];

internalField   nonuniform List<scalar> 
8810
(
0.0818822
0.0643825
0.220035
0.518503
0.84446
1.11555
1.3134
1.48654
0.0814687
0.0478709
0.116084
0.34593
0.645164
0.942924
1.18567
1.38075
1.57085
1.75493
1.86394
1.88246
1.84112
1.77551
1.76239
1.75405
1.72969
1.69483
1.65589
1.62985
0.0813669
0.0430834
0.0611297
0.214493
0.469845
0.762654
1.03471
1.25584
1.44535
1.61246
1.72088
1.75914
1.73895
1.69774
1.68047
1.66699
1.64387
1.61073
1.57428
1.54876
0.0813599
0.0417571
0.0378005
0.122793
0.328382
0.5896
0.866532
1.11084
1.31079
1.47395
1.58556
1.63963
1.63797
1.61235
1.59325
1.57653
1.55373
1.52236
1.48804
1.46318
0.0814054
0.0413385
0.0296578
0.0658734
0.215143
0.438836
0.695758
0.949857
1.1637
1.33232
1.45083
1.5188
1.53196
1.51874
1.50096
1.48247
1.4601
1.43066
1.39838
1.37428
0.0814814
0.0411575
0.0271422
0.0365778
0.129806
0.313194
0.536754
0.781103
1.0045
1.18296
1.31128
1.38877
1.41962
1.41642
1.40241
1.38479
1.36399
1.33705
1.307
1.2838
0.0815743
0.041062
0.0263581
0.0245197
0.0714581
0.208306
0.397871
0.618251
0.837185
1.02411
1.16315
1.25133
1.29411
1.30431
1.29763
1.28424
1.26692
1.24343
1.21607
1.19402
0.0816756
0.0410146
0.0260481
0.0204849
0.0379849
0.127765
0.281339
0.469484
0.671467
0.857355
1.00459
1.10331
1.15985
1.18379
1.18876
1.1828
1.17121
1.15236
1.12827
1.10766
0.0817809
0.0409989
0.0258751
0.019191
0.021827
0.0692156
0.185913
0.342419
0.518424
0.691219
0.83811
0.946266
1.0189
1.06035
1.08005
1.08462
1.08023
1.06708
1.0468
1.0279
0.0818874
0.0410031
0.0257563
0.0187639
0.016548
0.0344794
0.110756
0.236611
0.384292
0.537612
0.677979
0.793649
0.882842
0.942693
0.977877
0.994386
0.998344
0.991449
0.975212
0.958148
0.0819918
0.0410089
0.0256413
0.0184784
0.014952
0.0183978
0.0571789
0.149562
0.272183
0.406952
0.54214
0.664981
0.765198
0.839826
0.889111
0.917704
0.930574
0.929681
0.917228
0.901886
0.0820617
0.0409277
0.0253751
0.0179972
0.0140284
0.0127162
0.0253377
0.0814237
0.179944
0.302392
0.436326
0.565726
0.676155
0.762398
0.823366
0.861932
0.881985
0.885823
0.876303
0.862272
0.081888
0.0405018
0.0247152
0.0171153
0.0128944
0.0104601
0.0120024
0.0394502
0.118859
0.237715
0.374501
0.509218
0.627238
0.720694
0.788375
0.832594
0.856655
0.863083
0.85514
0.841729
0.0818778
0.0641311
0.219324
0.517722
0.843845
1.11387
1.3114
1.48581
0.0814685
0.0477922
0.115644
0.345343
0.644522
0.941737
1.18397
1.37992
1.57039
1.75423
1.8623
1.87988
1.83696
1.77088
1.76086
1.7541
1.72977
1.69491
1.65597
1.62992
0.0813676
0.0430623
0.0608989
0.214044
0.469278
0.761547
1.0333
1.25552
1.44488
1.61177
1.71932
1.75647
1.7348
1.69293
1.67828
1.66702
1.64394
1.6108
1.57434
1.54882
0.0813607
0.041752
0.0377067
0.122479
0.327943
0.588705
0.865201
1.11053
1.31037
1.47339
1.58416
1.63692
1.63559
1.60912
1.59096
1.57655
1.55379
1.52241
1.48809
1.46323
0.0814062
0.0413373
0.0296278
0.0656787
0.2148
0.43809
0.694507
0.949487
1.16332
1.33183
1.44955
1.51403
1.5286
1.51623
1.4988
1.48248
1.46015
1.43071
1.39843
1.37432
0.0814822
0.0411573
0.0271341
0.0364807
0.129556
0.312568
0.535786
0.780722
1.00416
1.18251
1.31011
1.38712
1.41808
1.41416
1.40045
1.3848
1.36403
1.33708
1.30703
1.28383
0.081575
0.041062
0.0263562
0.0244824
0.0712926
0.208108
0.397502
0.617727
0.83682
1.02369
1.16207
1.24969
1.29311
1.30223
1.29598
1.28427
1.26694
1.24345
1.21609
1.19404
0.0816763
0.0410147
0.0260477
0.0204731
0.0378831
0.127571
0.281173
0.469163
0.671097
0.856943
1.00361
1.10191
1.159
1.18204
1.18755
1.18291
1.17123
1.15237
1.12829
1.10768
0.0817815
0.0409991
0.025875
0.0191889
0.0217961
0.0691143
0.185773
0.342169
0.518082
0.690837
0.837279
0.945132
1.01822
1.05903
1.07838
1.08395
1.08023
1.06709
1.04681
1.02791
0.081888
0.0410033
0.0257562
0.0187634
0.0165377
0.0343899
0.110665
0.236444
0.384043
0.537325
0.677369
0.792879
0.882404
0.941843
0.976687
0.993893
0.998353
0.991454
0.975218
0.958152
0.0819924
0.041009
0.0256413
0.0184782
0.0149502
0.0183717
0.0571296
0.149456
0.272023
0.406725
0.541744
0.664566
0.764982
0.83941
0.888583
0.917509
0.930585
0.929683
0.91723
0.901888
0.0820622
0.0409276
0.025375
0.0179969
0.014028
0.012713
0.0253173
0.0813642
0.179834
0.302292
0.436181
0.565571
0.676099
0.762293
0.82328
0.861919
0.881992
0.885824
0.876304
0.862273
0.0818885
0.0405015
0.024715
0.017115
0.012894
0.0104594
0.011998
0.0394306
0.118832
0.237692
0.374469
0.50921
0.627248
0.720704
0.788417
0.832624
0.856658
0.863082
0.85514
0.841729
0.0818766
0.0640482
0.219302
0.517907
0.844184
1.11419
1.31159
1.48613
0.0814685
0.0477623
0.115598
0.345451
0.64475
0.942018
1.18431
1.38016
1.57054
1.75438
1.86232
1.87987
1.83724
1.77146
1.7614
1.7542
1.72989
1.69502
1.65607
1.63
0.0813679
0.0430529
0.0608558
0.214083
0.469417
0.761699
1.03349
1.25569
1.445
1.61184
1.71936
1.75651
1.73486
1.69302
1.6784
1.6671
1.64404
1.61089
1.57442
1.54889
0.0813611
0.0417488
0.0376828
0.122476
0.328022
0.588864
0.865408
1.11072
1.31051
1.47345
1.58418
1.63689
1.63528
1.60884
1.59109
1.57662
1.55387
1.52249
1.48816
1.46329
0.0814067
0.0413358
0.0296183
0.0656569
0.214827
0.438199
0.694623
0.949636
1.16345
1.33191
1.44957
1.51435
1.52908
1.51633
1.49888
1.48255
1.46021
1.43077
1.39848
1.37437
0.0814828
0.0411563
0.027131
0.0364621
0.129552
0.312578
0.53582
0.780822
1.00425
1.18258
1.31015
1.38707
1.41765
1.41426
1.40053
1.38486
1.36407
1.33713
1.30707
1.28387
0.0815756
0.0410612
0.0263552
0.0244733
0.0712741
0.208144
0.39747
0.617674
0.836882
1.02374
1.16211
1.24972
1.29321
1.30233
1.29606
1.28432
1.26698
1.24348
1.21612
1.19406
0.0816769
0.0410142
0.0260473
0.0204692
0.0378538
0.127541
0.281224
0.469196
0.671116
0.856964
1.00363
1.10191
1.15903
1.18211
1.1876
1.18295
1.17125
1.15239
1.12831
1.1077
0.0817821
0.0409988
0.0258747
0.0191886
0.0217973
0.0691259
0.185786
0.342173
0.518062
0.69082
0.837261
0.945097
1.01823
1.05907
1.07861
1.08413
1.08024
1.0671
1.04682
1.02792
0.0818886
0.0410031
0.025756
0.0187633
0.0165371
0.0343902
0.110668
0.23644
0.384025
0.537301
0.677327
0.792817
0.882406
0.941872
0.976676
0.993881
0.998363
0.991461
0.975224
0.958158
0.081993
0.041009
0.0256412
0.0184782
0.0149501
0.0183713
0.0571281
0.149447
0.272003
0.406671
0.541679
0.664525
0.764975
0.839417
0.888578
0.917515
0.930595
0.929686
0.917233
0.901891
0.0820629
0.0409276
0.025375
0.0179969
0.014028
0.0127125
0.0253154
0.081354
0.179802
0.302278
0.436169
0.565533
0.676089
0.76229
0.823271
0.861923
0.881999
0.885825
0.876305
0.862274
0.081889
0.0405013
0.0247147
0.0171149
0.0128939
0.0104592
0.0119973
0.0394258
0.118829
0.237696
0.374468
0.509204
0.627253
0.720708
0.788427
0.832635
0.856661
0.863082
0.85514
0.841729
0.0818751
0.0639592
0.21925
0.518027
0.844438
1.11443
1.31174
1.48639
0.0814685
0.0477318
0.115538
0.345525
0.644921
0.942234
1.18459
1.38035
1.57064
1.75448
1.86228
1.87994
1.83738
1.77192
1.76177
1.75429
1.72998
1.69511
1.65615
1.63008
0.0813682
0.0430436
0.0608065
0.214101
0.469517
0.761806
1.03365
1.25582
1.4451
1.61191
1.71941
1.75659
1.7349
1.69309
1.67849
1.66717
1.64412
1.61097
1.5745
1.54897
0.0813615
0.0417458
0.0376572
0.122462
0.328079
0.588986
0.865586
1.11088
1.31063
1.47352
1.58421
1.6369
1.63508
1.60863
1.59116
1.57668
1.55394
1.52255
1.48823
1.46335
0.081407
0.0413345
0.0296086
0.0656309
0.214845
0.438286
0.694726
0.949764
1.16357
1.33198
1.4496
1.51463
1.52943
1.51637
1.49893
1.4826
1.46026
1.43082
1.39853
1.37442
0.0814832
0.0411555
0.0271279
0.0364422
0.129543
0.312583
0.535847
0.780906
1.00434
1.18265
1.3102
1.3871
1.41735
1.4143
1.40058
1.3849
1.36411
1.33717
1.30711
1.28391
0.0815761
0.0410607
0.0263541
0.0244637
0.0712527
0.208169
0.397435
0.617629
0.836927
1.02379
1.16215
1.24975
1.29326
1.30236
1.29609
1.28435
1.26701
1.24351
1.21615
1.19409
0.0816774
0.0410137
0.026047
0.0204652
0.0378237
0.12751
0.281266
0.469219
0.671124
0.856978
1.00366
1.10191
1.15907
1.18213
1.1876
1.18297
1.17127
1.15241
1.12833
1.10771
0.0817826
0.0409984
0.0258745
0.0191883
0.0217977
0.0691344
0.185796
0.342172
0.51804
0.690801
0.83725
0.945076
1.01824
1.05907
1.07872
1.08423
1.08025
1.06711
1.04683
1.02793
0.0818892
0.0410028
0.0257559
0.0187632
0.0165363
0.0343895
0.110669
0.236432
0.384003
0.537274
0.67729
0.79277
0.882399
0.941861
0.976634
0.99386
0.998371
0.991468
0.975231
0.958164
0.0819935
0.0410088
0.0256412
0.0184782
0.01495
0.0183705
0.0571253
0.149437
0.271983
0.406618
0.541621
0.664492
0.764962
0.839403
0.888538
0.917501
0.930601
0.92969
0.917236
0.901894
0.0820634
0.0409276
0.0253749
0.0179969
0.0140279
0.012712
0.0253126
0.081343
0.179771
0.302261
0.436154
0.565503
0.676078
0.762279
0.823246
0.861916
0.882004
0.885827
0.876306
0.862274
0.0818894
0.0405011
0.0247146
0.0171148
0.0128938
0.0104591
0.0119964
0.0394209
0.118825
0.237698
0.374465
0.509198
0.627256
0.720708
0.788427
0.832641
0.856664
0.863083
0.855141
0.841729
0.0818731
0.0638591
0.219142
0.518052
0.844576
1.11458
1.31186
1.48662
0.0814684
0.0476982
0.11545
0.345539
0.645004
0.942362
1.18479
1.3805
1.5707
1.75448
1.8621
1.87993
1.83743
1.77226
1.76201
1.75436
1.73005
1.69518
1.65621
1.63014
0.0813684
0.0430339
0.0607465
0.214086
0.469558
0.76184
1.03376
1.25591
1.44515
1.61193
1.71944
1.75668
1.73499
1.69318
1.67856
1.66722
1.64418
1.61103
1.57456
1.54902
0.0813617
0.041743
0.0376282
0.12243
0.328097
0.589032
0.865708
1.11098
1.31071
1.47355
1.58422
1.63693
1.63499
1.6085
1.59121
1.57672
1.55399
1.52261
1.48828
1.4634
0.0814074
0.0413335
0.029598
0.0655966
0.214837
0.438288
0.694793
0.949855
1.16365
1.33202
1.44962
1.51486
1.52969
1.51639
1.49898
1.48264
1.46031
1.43086
1.39857
1.37446
0.0814836
0.0411549
0.0271247
0.0364194
0.129523
0.312556
0.535847
0.780958
1.0044
1.1827
1.31023
1.38712
1.41715
1.41431
1.40062
1.38493
1.36414
1.3372
1.30715
1.28394
0.0815765
0.0410603
0.0263532
0.0244534
0.0712266
0.20818
0.397388
0.617572
0.836951
1.02382
1.16218
1.24978
1.29328
1.30239
1.29612
1.28437
1.26703
1.24354
1.21617
1.19411
0.0816778
0.0410135
0.0260467
0.020461
0.037792
0.127475
0.281291
0.469225
0.671123
0.856983
1.00367
1.10191
1.15909
1.18213
1.1876
1.18299
1.17129
1.15243
1.12834
1.10773
0.0817831
0.0409983
0.0258743
0.019188
0.0217971
0.0691388
0.185802
0.342164
0.518011
0.690775
0.837229
0.945047
1.01824
1.05906
1.0788
1.08431
1.08026
1.06712
1.04684
1.02794
0.0818896
0.0410027
0.0257557
0.0187631
0.0165353
0.0343874
0.110666
0.236421
0.383976
0.53724
0.677247
0.79272
0.882383
0.941846
0.976602
0.993847
0.998376
0.991474
0.975237
0.95817
0.081994
0.0410088
0.0256411
0.0184782
0.0149499
0.0183694
0.0571213
0.149424
0.271959
0.406564
0.541561
0.664451
0.764945
0.839388
0.888498
0.917486
0.930606
0.929694
0.917239
0.901896
0.082064
0.0409277
0.0253749
0.0179968
0.0140279
0.0127113
0.0253094
0.0813303
0.17974
0.302242
0.436136
0.56547
0.676065
0.762268
0.823221
0.861907
0.882007
0.885828
0.876307
0.862275
0.0818898
0.0405008
0.0247144
0.0171147
0.0128936
0.0104589
0.0119955
0.0394151
0.118819
0.237698
0.374461
0.50919
0.627257
0.720706
0.788424
0.832644
0.856667
0.863084
0.855142
0.841729
0.0818708
0.0637484
0.218986
0.517997
0.844632
1.11468
1.31196
1.48684
0.0814681
0.047662
0.115336
0.345496
0.645015
0.94242
1.18494
1.38062
1.57074
1.75441
1.86181
1.87975
1.83734
1.7725
1.76219
1.75441
1.73009
1.69522
1.65625
1.63018
0.0813686
0.0430238
0.0606753
0.214036
0.469541
0.761815
1.03383
1.25597
1.44517
1.61193
1.71943
1.75676
1.73504
1.69326
1.67862
1.66725
1.64421
1.61107
1.5746
1.54906
0.081362
0.0417403
0.0375958
0.122379
0.32808
0.589032
0.865782
1.11105
1.31076
1.47355
1.58423
1.63696
1.63494
1.60841
1.59125
1.57675
1.55403
1.52264
1.48831
1.46344
0.0814077
0.0413325
0.0295867
0.0655541
0.214809
0.438261
0.694824
0.949909
1.1637
1.33204
1.44963
1.51503
1.52988
1.5164
1.49902
1.48266
1.46034
1.43089
1.3986
1.37449
0.081484
0.0411544
0.0271214
0.0363934
0.129491
0.312512
0.535823
0.780977
1.00443
1.18272
1.31025
1.38715
1.41701
1.41431
1.40065
1.38496
1.36417
1.33722
1.30717
1.28396
0.0815769
0.0410599
0.0263523
0.0244421
0.0711952
0.208176
0.397327
0.617503
0.836953
1.02383
1.16219
1.24979
1.29328
1.30241
1.29613
1.28438
1.26705
1.24355
1.21619
1.19413
0.0816782
0.0410131
0.0260464
0.0204567
0.0377585
0.127435
0.281301
0.469215
0.671104
0.856972
1.00366
1.1019
1.15911
1.18214
1.18761
1.18301
1.1713
1.15244
1.12835
1.10774
0.0817835
0.040998
0.0258741
0.0191876
0.0217956
0.0691387
0.185802
0.342146
0.517972
0.690738
0.837199
0.945012
1.01824
1.05905
1.07886
1.08437
1.08027
1.06713
1.04685
1.02794
0.0818901
0.0410026
0.0257557
0.018763
0.0165342
0.0343844
0.110662
0.236405
0.383942
0.537198
0.677198
0.792666
0.882366
0.941828
0.976581
0.993838
0.99838
0.991478
0.975242
0.958174
0.0819944
0.0410088
0.0256411
0.0184782
0.0149497
0.0183679
0.0571161
0.14941
0.271931
0.406508
0.541501
0.664404
0.764916
0.83937
0.888462
0.917472
0.930609
0.929697
0.917241
0.901898
0.0820645
0.0409277
0.0253748
0.0179968
0.0140278
0.0127106
0.0253059
0.0813174
0.179708
0.302218
0.436113
0.565437
0.676049
0.762254
0.823196
0.861899
0.88201
0.88583
0.876309
0.862276
0.0818902
0.0405007
0.0247142
0.0171146
0.0128935
0.0104587
0.0119944
0.0394088
0.118812
0.237697
0.374454
0.50918
0.627258
0.720701
0.788417
0.832646
0.85667
0.863085
0.855142
0.841729
0.0818682
0.0636314
0.218795
0.517886
0.844634
1.11472
1.31205
1.48703
0.0814677
0.047624
0.115203
0.345413
0.644982
0.942435
1.18504
1.38072
1.57077
1.75428
1.86143
1.87942
1.83715
1.77266
1.76232
1.75445
1.73011
1.69525
1.65628
1.63021
0.0813686
0.0430133
0.0605959
0.213958
0.469489
0.761771
1.03386
1.256
1.44518
1.61192
1.71939
1.7568
1.73507
1.69333
1.67867
1.66727
1.64424
1.6111
1.57462
1.54909
0.0813621
0.0417376
0.0375603
0.122313
0.328038
0.589015
0.865812
1.11109
1.31078
1.47354
1.58421
1.63698
1.6349
1.60834
1.59127
1.57676
1.55405
1.52267
1.48833
1.46346
0.081408
0.0413316
0.0295746
0.0655038
0.214766
0.438256
0.694818
0.949933
1.16373
1.33204
1.44962
1.51517
1.53
1.5164
1.49904
1.48268
1.46036
1.43091
1.39862
1.37451
0.0814843
0.041154
0.027118
0.0363647
0.129449
0.312467
0.535776
0.780971
1.00444
1.18272
1.31024
1.38717
1.4169
1.41431
1.40066
1.38497
1.36419
1.33724
1.30718
1.28398
0.0815772
0.0410597
0.0263513
0.0244301
0.0711589
0.208158
0.397258
0.617425
0.836936
1.02383
1.16219
1.24979
1.29327
1.30241
1.29615
1.2844
1.26706
1.24357
1.2162
1.19414
0.0816786
0.041013
0.0260461
0.0204523
0.0377238
0.127391
0.281298
0.469189
0.671075
0.85695
1.00365
1.10188
1.15911
1.18214
1.18762
1.18303
1.17131
1.15245
1.12836
1.10775
0.0817839
0.0409978
0.025874
0.0191872
0.021793
0.0691353
0.185796
0.342123
0.51793
0.690696
0.837162
0.944971
1.01823
1.05904
1.07891
1.08441
1.08028
1.06713
1.04685
1.02795
0.0818904
0.0410025
0.0257556
0.0187629
0.016533
0.0343802
0.110653
0.236384
0.383905
0.537151
0.677145
0.792611
0.882358
0.941808
0.976564
0.993832
0.998383
0.991482
0.975245
0.958176
0.0819949
0.0410087
0.0256411
0.0184782
0.0149495
0.0183658
0.0571092
0.149392
0.2719
0.406452
0.541441
0.664355
0.764899
0.839349
0.888423
0.917459
0.930611
0.929698
0.917243
0.901899
0.0820649
0.0409275
0.0253748
0.0179968
0.0140277
0.0127099
0.0253019
0.0813031
0.179676
0.302192
0.436087
0.565402
0.67603
0.762237
0.823165
0.861893
0.882012
0.885831
0.876309
0.862276
0.0818905
0.0405004
0.0247141
0.0171145
0.0128934
0.0104585
0.0119933
0.0394025
0.118804
0.237693
0.374447
0.509168
0.627253
0.720692
0.7884
0.832643
0.856672
0.863086
0.855142
0.841729
0.0818655
0.0635112
0.218585
0.517746
0.844608
1.11475
1.31213
1.48719
0.0814672
0.0475851
0.115058
0.345303
0.644917
0.942426
1.18513
1.38083
1.57078
1.75409
1.86099
1.87898
1.83688
1.77274
1.76241
1.75448
1.73013
1.69527
1.6563
1.63023
0.0813686
0.0430026
0.0605105
0.213862
0.469411
0.761704
1.03388
1.25603
1.44519
1.61189
1.71933
1.7568
1.73509
1.69339
1.67871
1.66729
1.64425
1.61112
1.57464
1.5491
0.0813623
0.0417349
0.0375229
0.122236
0.327977
0.588973
0.865819
1.11111
1.31079
1.47353
1.5842
1.63701
1.63488
1.6083
1.59128
1.57677
1.55406
1.52268
1.48835
1.46348
0.0814082
0.041331
0.029562
0.065449
0.214712
0.438229
0.694795
0.949939
1.16374
1.33203
1.44961
1.51527
1.53008
1.51639
1.49906
1.48269
1.46037
1.43092
1.39864
1.37452
0.0814845
0.0411536
0.0271144
0.0363339
0.129399
0.312412
0.535719
0.780947
1.00443
1.18272
1.31024
1.38718
1.41682
1.41429
1.40068
1.38498
1.3642
1.33725
1.30719
1.28399
0.0815775
0.0410593
0.0263504
0.0244175
0.0711183
0.20813
0.397179
0.617339
0.83691
1.02381
1.16218
1.24979
1.29324
1.30241
1.29615
1.2844
1.26707
1.24357
1.21621
1.19415
0.0816789
0.0410128
0.0260458
0.0204476
0.0376876
0.127343
0.281283
0.469154
0.671037
0.856919
1.00363
1.10186
1.1591
1.18213
1.18763
1.18304
1.17132
1.15246
1.12837
1.10775
0.0817843
0.0409978
0.0258739
0.0191868
0.0217896
0.0691283
0.185786
0.342092
0.517881
0.690647
0.837118
0.944926
1.01822
1.05902
1.07895
1.08444
1.08029
1.06714
1.04686
1.02795
0.0818908
0.0410025
0.0257555
0.0187628
0.0165316
0.0343747
0.110643
0.23636
0.383862
0.537099
0.677089
0.792554
0.882344
0.941787
0.97655
0.993828
0.998385
0.991484
0.975247
0.958179
0.0819952
0.0410088
0.0256411
0.0184782
0.0149493
0.0183636
0.0571012
0.149373
0.271865
0.406394
0.54138
0.664304
0.764884
0.839327
0.888389
0.917447
0.930611
0.929701
0.917244
0.9019
0.0820653
0.0409276
0.0253748
0.0179968
0.0140277
0.012709
0.0252972
0.0812873
0.179643
0.302165
0.436059
0.565367
0.676013
0.76222
0.823137
0.861887
0.882013
0.885833
0.87631
0.862277
0.0818908
0.0405003
0.024714
0.0171144
0.0128933
0.0104582
0.011992
0.0393959
0.118795
0.237688
0.374438
0.509155
0.627248
0.720682
0.788383
0.83264
0.856674
0.863087
0.855143
0.841729
0.0818627
0.06339
0.218364
0.517585
0.84456
1.11478
1.31221
1.48729
0.0814668
0.0475454
0.114905
0.345174
0.644826
0.942398
1.1852
1.38093
1.57078
1.75387
1.86053
1.87845
1.83656
1.77275
1.76247
1.75451
1.73014
1.69528
1.6563
1.63023
0.0813686
0.0429919
0.060422
0.213754
0.469311
0.761609
1.03388
1.25606
1.44519
1.61186
1.71924
1.75676
1.73508
1.69345
1.67874
1.6673
1.64426
1.61113
1.57465
1.54911
0.0813625
0.0417322
0.0374846
0.122152
0.327898
0.588893
0.865814
1.11112
1.3108
1.47352
1.58417
1.63705
1.63487
1.60828
1.59129
1.57678
1.55407
1.52269
1.48836
1.46349
0.0814084
0.0413301
0.0295491
0.0653902
0.214643
0.43814
0.694762
0.949934
1.16375
1.33202
1.44959
1.51536
1.53014
1.51638
1.49906
1.48269
1.46038
1.43093
1.39864
1.37453
0.0814848
0.0411533
0.0271109
0.0363016
0.129343
0.312335
0.535651
0.780912
1.00442
1.1827
1.31022
1.38718
1.41675
1.41427
1.40068
1.38498
1.3642
1.33725
1.3072
1.28399
0.0815778
0.0410592
0.0263495
0.0244045
0.0710757
0.208095
0.397097
0.617251
0.836873
1.02379
1.16216
1.24979
1.29322
1.3024
1.29615
1.28441
1.26707
1.24358
1.21621
1.19415
0.0816792
0.0410128
0.0260456
0.020443
0.0376506
0.127294
0.281259
0.469109
0.670991
0.856881
1.0036
1.10183
1.15909
1.18212
1.18763
1.18306
1.17132
1.15246
1.12837
1.10776
0.0817846
0.0409978
0.0258738
0.0191863
0.0217858
0.0691196
0.185772
0.342057
0.517826
0.690595
0.837071
0.944879
1.0182
1.05901
1.07896
1.08446
1.0803
1.06714
1.04686
1.02796
0.0818911
0.0410025
0.0257555
0.0187627
0.0165302
0.0343684
0.11063
0.236333
0.383815
0.537045
0.67703
0.792496
0.882318
0.941767
0.976537
0.993824
0.998386
0.991486
0.975248
0.95818
0.0819956
0.0410088
0.0256411
0.0184782
0.0149491
0.0183611
0.057092
0.149352
0.271831
0.406337
0.541318
0.664253
0.764862
0.839309
0.888363
0.917434
0.930611
0.929701
0.917245
0.901901
0.0820656
0.0409277
0.0253748
0.0179968
0.0140276
0.0127081
0.0252922
0.0812715
0.179611
0.302134
0.436028
0.565332
0.675997
0.762208
0.823118
0.861876
0.882014
0.885833
0.87631
0.862277
0.0818911
0.0405003
0.0247138
0.0171143
0.0128932
0.010458
0.0119907
0.0393885
0.118785
0.237681
0.374427
0.509139
0.627241
0.720677
0.788375
0.832637
0.856675
0.863087
0.855143
0.841729
0.0818598
0.0632687
0.218137
0.517413
0.844502
1.1148
1.31228
1.48734
0.0814663
0.047506
0.114748
0.345035
0.64473
0.942362
1.18526
1.38102
1.57077
1.75362
1.86007
1.8779
1.83622
1.77272
1.76249
1.75452
1.73014
1.69528
1.65631
1.63024
0.0813687
0.0429812
0.060331
0.213637
0.469204
0.761519
1.03388
1.25609
1.4452
1.61181
1.71913
1.75668
1.73505
1.69349
1.67876
1.66731
1.64426
1.61113
1.57465
1.54912
0.0813626
0.0417297
0.0374451
0.122062
0.327812
0.58882
0.865792
1.11112
1.3108
1.4735
1.58415
1.63708
1.63486
1.60827
1.5913
1.57678
1.55407
1.52269
1.48836
1.46349
0.0814086
0.0413296
0.0295361
0.0653285
0.214571
0.43809
0.694713
0.949916
1.16374
1.332
1.44957
1.51542
1.53018
1.51637
1.49907
1.48269
1.46038
1.43093
1.39865
1.37453
0.081485
0.0411532
0.0271073
0.0362684
0.129284
0.312266
0.535576
0.780868
1.0044
1.18268
1.3102
1.38717
1.4167
1.41425
1.40068
1.38498
1.36421
1.33726
1.3072
1.28399
0.0815781
0.0410592
0.0263486
0.0243911
0.0710304
0.208054
0.397011
0.61716
0.836828
1.02376
1.16214
1.24978
1.29319
1.30238
1.29615
1.28441
1.26708
1.24358
1.21622
1.19416
0.0816795
0.0410127
0.0260454
0.0204383
0.0376132
0.127242
0.28123
0.469056
0.670939
0.856838
1.00356
1.1018
1.15908
1.1821
1.18763
1.18306
1.17133
1.15246
1.12837
1.10776
0.0817849
0.0409978
0.0258737
0.0191858
0.0217812
0.0691072
0.185755
0.342019
0.51777
0.690538
0.83702
0.944829
1.01818
1.05899
1.07897
1.08448
1.0803
1.06714
1.04686
1.02796
0.0818915
0.0410025
0.0257554
0.0187626
0.0165287
0.0343618
0.110617
0.236303
0.383766
0.536986
0.676969
0.792437
0.882292
0.941745
0.976525
0.99382
0.998386
0.991486
0.975249
0.95818
0.0819959
0.0410089
0.0256411
0.0184782
0.0149488
0.0183584
0.057082
0.14933
0.271793
0.406279
0.541257
0.664202
0.764839
0.83929
0.888341
0.917421
0.93061
0.929701
0.917245
0.901901
0.082066
0.0409278
0.0253748
0.0179968
0.0140275
0.0127072
0.0252871
0.0812546
0.179577
0.302103
0.435995
0.565296
0.675981
0.762195
0.823099
0.861865
0.882013
0.885834
0.87631
0.862277
0.0818913
0.0405002
0.0247136
0.0171142
0.0128931
0.0104578
0.0119893
0.0393813
0.118774
0.237673
0.374415
0.509123
0.627233
0.720671
0.788365
0.832633
0.856675
0.863088
0.855143
0.841729
0.081857
0.0631481
0.217903
0.51723
0.844437
1.1148
1.31234
1.48733
0.0814658
0.0474664
0.114586
0.344883
0.644622
0.94232
1.18531
1.3811
1.57074
1.75337
1.85967
1.87736
1.83587
1.77265
1.7625
1.75454
1.73014
1.69528
1.65631
1.63024
0.0813687
0.0429705
0.0602379
0.213512
0.469084
0.761425
1.03387
1.25611
1.4452
1.61175
1.71901
1.75658
1.735
1.69351
1.67878
1.66732
1.64426
1.61113
1.57465
1.54911
0.0813627
0.0417272
0.0374052
0.121968
0.327717
0.588739
0.865759
1.11111
1.3108
1.47347
1.58412
1.6371
1.63486
1.60827
1.5913
1.57677
1.55407
1.52269
1.48836
1.46349
0.0814088
0.041329
0.0295227
0.0652645
0.214494
0.438028
0.694657
0.949892
1.16373
1.33198
1.44955
1.51548
1.5302
1.51636
1.49907
1.48269
1.46038
1.43093
1.39865
1.37453
0.0814853
0.041153
0.0271036
0.036234
0.12922
0.312192
0.535495
0.780814
1.00437
1.18265
1.31017
1.38717
1.41666
1.41422
1.40067
1.38497
1.36421
1.33726
1.3072
1.28399
0.0815784
0.0410591
0.0263478
0.0243775
0.0709833
0.208006
0.396922
0.617067
0.836778
1.02372
1.16211
1.24977
1.29315
1.30236
1.29614
1.2844
1.26708
1.24358
1.21621
1.19415
0.0816798
0.0410127
0.0260453
0.0204335
0.0375752
0.127188
0.281191
0.469
0.670883
0.85679
1.00352
1.10177
1.15906
1.18208
1.18763
1.18307
1.17133
1.15246
1.12837
1.10776
0.0817852
0.0409978
0.0258736
0.0191853
0.0217762
0.0690941
0.185735
0.341976
0.51771
0.690479
0.836966
0.944778
1.01816
1.05897
1.07898
1.08449
1.0803
1.06714
1.04686
1.02796
0.0818917
0.0410025
0.0257554
0.0187625
0.016527
0.0343541
0.110601
0.236272
0.383716
0.536927
0.676907
0.792377
0.882263
0.941723
0.976513
0.993816
0.998386
0.991486
0.975248
0.95818
0.0819962
0.041009
0.0256412
0.0184782
0.0149486
0.0183555
0.0570719
0.149307
0.271754
0.40622
0.541196
0.664149
0.764815
0.83927
0.888319
0.91741
0.930608
0.929701
0.917245
0.901901
0.0820663
0.0409279
0.0253748
0.0179968
0.0140274
0.0127062
0.0252815
0.0812378
0.179544
0.30207
0.435961
0.56526
0.675964
0.762183
0.823081
0.861854
0.882012
0.885834
0.87631
0.862277
0.0818916
0.0405001
0.0247136
0.0171142
0.012893
0.0104576
0.0119879
0.0393735
0.118762
0.237664
0.374402
0.509105
0.627224
0.720664
0.788355
0.832629
0.856675
0.863088
0.855143
0.841729
0.166943
0.117652
0.464801
0.0903708
0.228767
0.0834902
0.110922
0.385266
0.738648
1.04946
1.26649
1.41152
0.0818541
0.0630272
0.217663
0.517037
0.844359
1.11481
1.31239
1.48729
0.0814653
0.0474271
0.114421
0.344723
0.644503
0.942269
1.18535
1.38117
1.5707
1.75313
1.85934
1.87689
1.83554
1.77256
1.76249
1.75454
1.73013
1.69527
1.6563
1.63023
0.0813687
0.0429599
0.060143
0.213378
0.468953
0.761322
1.03385
1.25613
1.4452
1.61169
1.71888
1.75646
1.73494
1.69353
1.67879
1.66732
1.64425
1.61112
1.57465
1.54911
0.0813628
0.0417248
0.0373641
0.121867
0.327613
0.588645
0.865715
1.1111
1.31079
1.47345
1.58408
1.63711
1.63485
1.60827
1.5913
1.57677
1.55406
1.52268
1.48835
1.46348
0.081409
0.0413287
0.0295093
0.0651979
0.214409
0.437956
0.69459
0.949857
1.16371
1.33195
1.44953
1.51551
1.53021
1.51635
1.49906
1.48267
1.46037
1.43093
1.39864
1.37452
0.0814855
0.041153
0.0270999
0.0361989
0.129153
0.312113
0.535407
0.780753
1.00433
1.18262
1.31014
1.38716
1.41662
1.4142
1.40067
1.38496
1.3642
1.33725
1.3072
1.28399
0.0815786
0.0410591
0.0263469
0.0243634
0.0709337
0.207953
0.396829
0.61697
0.836722
1.02368
1.16207
1.24976
1.29312
1.30233
1.29613
1.2844
1.26707
1.24357
1.21621
1.19415
0.08168
0.0410127
0.0260451
0.0204287
0.037537
0.127132
0.281148
0.468937
0.670823
0.856737
1.00348
1.10173
1.15903
1.18206
1.18762
1.18307
1.17133
1.15246
1.12837
1.10775
0.0817854
0.0409978
0.0258736
0.0191847
0.0217705
0.0690774
0.185712
0.341931
0.517648
0.690416
0.836908
0.944725
1.01814
1.05894
1.07898
1.0845
1.0803
1.06714
1.04686
1.02795
0.081892
0.0410026
0.0257554
0.0187625
0.0165254
0.034346
0.110585
0.236238
0.383663
0.536863
0.676843
0.792316
0.882234
0.9417
0.9765
0.99381
0.998384
0.991484
0.975247
0.958179
0.0819965
0.0410091
0.0256412
0.0184783
0.0149483
0.0183524
0.0570609
0.149282
0.271711
0.40616
0.541135
0.664096
0.76479
0.839251
0.8883
0.917399
0.930606
0.9297
0.917244
0.9019
0.0820665
0.040928
0.0253749
0.0179968
0.0140274
0.0127053
0.025276
0.08122
0.17951
0.302036
0.435926
0.565224
0.675947
0.762169
0.823064
0.861844
0.88201
0.885833
0.87631
0.862276
0.0818918
0.0405001
0.0247135
0.0171141
0.0128928
0.0104573
0.0119863
0.0393659
0.11875
0.237653
0.374387
0.509086
0.627214
0.720656
0.788344
0.832623
0.856674
0.863088
0.855142
0.841729
0.526989
1.70939
1.76851
0.166554
0.864112
1.30792
0.117412
0.464604
0.935788
0.0903144
0.22834
0.620442
0.083477
0.110645
0.384968
0.738495
1.04944
1.26652
1.41137
0.0818512
0.0629054
0.217412
0.516828
0.844262
1.11481
1.31242
1.4872
0.0814648
0.0473871
0.114249
0.344545
0.644362
0.9422
1.18538
1.38122
1.57066
1.75293
1.85911
1.87651
1.83526
1.77247
1.76245
1.75453
1.73012
1.69526
1.65629
1.63022
0.0813686
0.0429492
0.0600447
0.213233
0.468803
0.761191
1.03383
1.25615
1.44519
1.61162
1.71875
1.75632
1.73487
1.69353
1.67878
1.66731
1.64424
1.61111
1.57463
1.54909
0.081363
0.0417223
0.0373225
0.121761
0.327491
0.588516
0.86566
1.11108
1.31077
1.47342
1.58404
1.63711
1.63484
1.60826
1.59129
1.57675
1.55405
1.52267
1.48834
1.46347
0.0814092
0.0413281
0.0294955
0.0651277
0.214312
0.437826
0.694514
0.949812
1.16368
1.33192
1.44949
1.51553
1.53022
1.51633
1.49905
1.48266
1.46036
1.43091
1.39863
1.37451
0.0814857
0.041153
0.0270963
0.0361625
0.12908
0.312013
0.535311
0.780682
1.00429
1.18258
1.31011
1.38714
1.41658
1.41417
1.40065
1.38495
1.36419
1.33724
1.30719
1.28398
0.0815789
0.0410593
0.0263461
0.0243492
0.0708825
0.207894
0.396733
0.61687
0.836656
1.02364
1.16203
1.24974
1.29308
1.30231
1.29612
1.28439
1.26706
1.24357
1.2162
1.19414
0.0816803
0.0410128
0.0260449
0.0204238
0.037498
0.127075
0.281099
0.468867
0.670755
0.856678
1.00343
1.1017
1.159
1.18204
1.18761
1.18307
1.17132
1.15245
1.12836
1.10775
0.0817857
0.0409978
0.0258735
0.0191842
0.0217647
0.0690597
0.185685
0.341881
0.517582
0.69035
0.836848
0.944669
1.01811
1.05892
1.07897
1.0845
1.0803
1.06713
1.04685
1.02795
0.0818923
0.0410026
0.0257554
0.0187624
0.0165236
0.0343374
0.110566
0.236202
0.383607
0.536799
0.676777
0.792255
0.882202
0.941675
0.976486
0.993803
0.998381
0.991482
0.975244
0.958177
0.0819967
0.0410091
0.0256413
0.0184783
0.014948
0.0183491
0.057049
0.149256
0.271668
0.406101
0.541073
0.664042
0.76476
0.83923
0.88828
0.917387
0.930602
0.929699
0.917243
0.901899
0.0820668
0.0409281
0.0253749
0.0179968
0.0140273
0.0127043
0.0252702
0.0812023
0.179477
0.302
0.435889
0.565187
0.675925
0.762155
0.823047
0.861834
0.882008
0.885832
0.876309
0.862276
0.081892
0.0405
0.0247133
0.017114
0.0128927
0.0104571
0.0119848
0.0393576
0.118736
0.237641
0.374371
0.509066
0.627202
0.720647
0.788333
0.832616
0.856672
0.863087
0.855142
0.841729
0.528822
1.72621
1.78184
1.75969
0.166191
0.863575
1.30895
1.46607
0.117183
0.464402
0.935776
1.2388
0.0902583
0.227915
0.62015
0.988964
0.0834635
0.110363
0.384652
0.738317
1.04939
1.26654
1.41123
0.0818482
0.0627814
0.217146
0.516595
0.844141
1.1148
1.31244
1.48709
0.0814643
0.0473466
0.114068
0.344346
0.644193
0.94211
1.18539
1.38125
1.57062
1.75278
1.859
1.87626
1.83505
1.77238
1.76241
1.75451
1.7301
1.69523
1.65626
1.63019
0.0813686
0.0429383
0.0599421
0.213074
0.468632
0.761039
1.03378
1.25615
1.44517
1.61154
1.71863
1.75619
1.73479
1.69352
1.67876
1.66729
1.64421
1.61108
1.57461
1.54907
0.0813631
0.0417199
0.0372791
0.121646
0.327354
0.588368
0.865588
1.11105
1.31075
1.47337
1.58398
1.6371
1.63482
1.60825
1.59127
1.57673
1.55402
1.52265
1.48832
1.46345
0.0814094
0.0413277
0.0294814
0.065054
0.214204
0.437682
0.694423
0.949753
1.16364