/*--------------------------------*- C++ -*----------------------------------*\
  =========                 |
  \\      /  F ield         | OpenFOAM: The Open Source CFD Toolbox
   \\    /   O peration     | Website:  https://openfoam.org
    \\  /    A nd           | Version:  10
     \\/     M anipulation  |
\*---------------------------------------------------------------------------*/
FoamFile
{
    format      ascii;
    class       volScalarField;
    location    "2000";
    object      nut;
}
// * * * * * * * * * * * * * * * * * * * * * * * * * * * * * * * * * * * * * //

dimensions      [0 2 -1 0 0 0 0];

internalField   nonuniform List<scalar> 
8810
(
0.124582
0.184732
0.770623
1.56329
2.27401
2.99005
3.52319
3.7021
0.123517
0.139541
0.463336
1.3866
2.03056
2.75092
3.40708
3.89925
4.11072
4.18091
4.42423
4.77628
5.13805
5.62468
6.26656
6.86996
7.35364
7.69499
7.92836
8.07122
0.123079
0.125617
0.264718
0.994074
1.82082
2.49852
3.18953
3.84623
4.34479
4.65894
5.03741
5.4972
5.9013
6.33032
6.8902
7.45469
7.92967
8.29272
8.55418
8.71834
0.122838
0.121449
0.169786
0.643436
1.63225
2.26627
2.92335
3.63756
4.30793
4.83574
5.34181
5.86594
6.42446
6.85519
7.37075
7.90363
8.37038
8.74842
9.03507
9.21993
0.122689
0.119977
0.134537
0.378877
1.21603
2.07734
2.64592
3.3391
4.08517
4.75817
5.37391
5.95053
6.58719
7.14569
7.68476
8.21493
8.68423
9.0793
9.38961
9.59423
0.122593
0.119253
0.123181
0.222642
0.825571
1.82242
2.38256
3.01118
3.74439
4.48945
5.19127
5.78884
6.50106
7.17673
7.81788
8.40621
8.88795
9.30279
9.63614
9.85954
0.122531
0.118788
0.119488
0.152896
0.503074
1.36831
2.13827
2.70234
3.35384
4.09451
4.84217
5.51379
6.28138
7.07372
7.87563
8.4963
8.99918
9.43679
9.79289
10.0339
0.12249
0.118456
0.117993
0.128553
0.287912
0.942759
1.87148
2.41784
2.98539
3.64825
4.39566
5.16542
6.02324
6.97607
7.92541
8.50639
9.03704
9.49971
9.87791
10.1351
0.122464
0.118206
0.117114
0.120522
0.172576
0.57057
1.39244
2.16372
2.67968
3.25691
3.97146
4.83065
5.84235
6.97533
7.83721
8.45971
9.02137
9.51014
9.90912
10.1806
0.122449
0.118012
0.116488
0.117891
0.132878
0.311416
0.93612
1.78972
2.42291
3.00026
3.73598
4.70471
5.85734
6.97445
7.71119
8.37659
8.97267
9.48666
9.90411
10.1875
0.12244
0.117832
0.115901
0.116298
0.120918
0.176659
0.546494
1.28173
2.12349
2.87291
3.76097
4.87875
5.88239
6.7793
7.57616
8.28523
8.91173
9.44725
9.87977
10.1724
0.122399
0.117494
0.114878
0.114006
0.114974
0.127205
0.274568
0.809468
1.62046
2.55311
3.56989
4.63122
5.66924
6.62104
7.46548
8.20835
8.85723
9.40819
9.85145
10.1504
0.122121
0.11653
0.112738
0.110152
0.108565
0.109341
0.147049
0.480021
1.27649
2.28805
3.37579
4.48635
5.55564
6.53406
7.40322
8.16402
8.82418
9.38306
9.83204
10.1342
0.124573
0.184081
0.76876
1.57731
2.28747
3.00701
3.55
3.7214
0.123515
0.139328
0.461864
1.38514
2.0435
2.76862
3.43252
3.93086
4.13727
4.21434
4.46267
4.83052
5.16619
5.66573
6.28947
6.86618
7.35301
7.69436
7.92777
8.07067
0.123079
0.125559
0.263819
0.992514
1.83445
2.51171
3.20178
3.8687
4.37162
4.69453
5.07759
5.52661
5.92207
6.36173
6.91044
7.448
7.92956
8.29232
8.55379
8.71798
0.122837
0.121434
0.169393
0.642074
1.63082
2.28147
2.92879
3.64824
4.32663
4.86208
5.36989
5.87273
6.43197
6.86804
7.38469
7.89976
8.37014
8.74816
9.03483
9.2197
0.122689
0.119973
0.134407
0.377882
1.21457
2.09706
2.65208
3.34696
4.0972
4.77542
5.39286
5.95177
6.59488
7.18039
7.70606
8.2157
8.68412
9.07917
9.38947
9.5941
0.122593
0.119251
0.123144
0.222094
0.824267
1.81994
2.38311
3.01544
3.75247
4.50066
5.20337
5.83189
6.5457
7.17965
7.84199
8.40707
8.88793
9.30272
9.63608
9.85947
0.122531
0.118788
0.119478
0.152676
0.502054
1.36732
2.13571
2.70133
3.36149
4.1026
4.84894
5.53633
6.32027
7.07465
7.90096
8.4976
8.99928
9.43676
9.79286
10.0339
0.12249
0.118455
0.11799
0.128482
0.287206
0.941581
1.87066
2.41671
2.99189
3.65455
4.40148
5.16685
6.03275
6.97862
7.92956
8.50841
9.03733
9.49971
9.8779
10.1351
0.122464
0.118206
0.117113
0.120508
0.172343
0.569805
1.39161
2.16029
2.68439
3.26244
3.97857
4.83635
5.8546
6.98108
7.84033
8.46264
9.02184
9.51017
9.90912
10.1806
0.122449
0.118011
0.116488
0.117888
0.132797
0.310645
0.935475
1.78878
2.42676
3.00562
3.74426
4.71394
5.8716
6.97386
7.71334
8.37938
8.97312
9.48668
9.9041
10.1875
0.12244
0.117832
0.115901
0.116296
0.120902
0.176412
0.546076
1.28101
2.12259
2.87745
3.7667
4.88869
5.88227
6.77916
7.5781
8.28744
8.91206
9.44724
9.87977
10.1724
0.1224
0.117494
0.114877
0.114005
0.114971
0.127174
0.274366
0.808972
1.61974
2.55261
3.56935
4.63088
5.66933
6.62123
7.46701
8.2098
8.85742
9.40819
9.85145
10.1504
0.122121
0.11653
0.112737
0.110151
0.108562
0.109335
0.147001
0.479833
1.27632
2.28795
3.37569
4.48639
5.55577
6.53424
7.40393
8.16458
8.82424
9.38306
9.83203
10.1342
0.124571
0.183877
0.768721
1.57726
2.28879
3.00703
3.55527
3.72529
0.123514
0.139254
0.461725
1.38547
2.04568
2.7686
3.43399
3.9314
4.13497
4.21114
4.46905
4.82942
5.1643
5.66285
6.28828
6.86342
7.35231
7.69365
7.9271
8.07003
0.123078
0.125537
0.263663
0.992661
1.8371
2.51373
3.20549
3.87203
4.36954
4.69015
5.07575
5.55019
5.92233
6.36282
6.9116
7.44625
7.92758
8.29187
8.55336
8.71756
0.122837
0.121428
0.1693
0.642067
1.63111
2.28491
2.93477
3.65356
4.32778
4.86213
5.37167
5.90066
6.43253
6.86955
7.38521
7.89886
8.36986
8.7479
9.03457
9.21945
0.122689
0.119971
0.13437
0.377778
1.21469
2.10237
2.65651
3.35138
4.10028
4.77868
5.3983
5.97043
6.62111
7.16924
7.7066
8.2157
8.68397
9.07902
9.38932
9.59394
0.122593
0.11925
0.123133
0.221995
0.824245
1.81998
2.38561
3.01901
3.75601
4.50479
5.20872
5.82659
6.55648
7.18527
7.85633
8.40717
8.88786
9.30265
9.636
9.85939
0.122531
0.118787
0.119475
0.152625
0.501942
1.36749
2.13882
2.70452
3.36498
4.10655
4.85309
5.53618
6.32072
7.07655
7.9152
8.4978
8.99925
9.43673
9.79283
10.0338
0.12249
0.118455
0.117989
0.128459
0.287006
0.941406
1.87089
2.42046
2.99507
3.65786
4.40446
5.17363
6.04393
6.97683
7.93013
8.50887
9.03736
9.4997
9.87789
10.1351
0.122464
0.118206
0.117113
0.120507
0.172354
0.569884
1.39168
2.16361
2.68718
3.26509
3.98022
4.84016
5.86243
6.97876
7.84141
8.46319
9.02198
9.51017
9.90912
10.1806
0.122449
0.118011
0.116487
0.117888
0.132793
0.310648
0.935488
1.78875
2.42941
3.00816
3.74541
4.7165
5.87794
6.97403
7.71365
8.37975
8.97323
9.48668
9.90411
10.1875
0.12244
0.117832
0.115901
0.116297
0.120902
0.176409
0.546061
1.28094
2.12247
2.88034
3.76812
4.89141
5.88224
6.77924
7.57833
8.28774
8.91214
9.44725
9.87977
10.1724
0.1224
0.117494
0.114877
0.114005
0.114971
0.12717
0.274346
0.808878
1.61952
2.55254
3.56928
4.63074
5.66929
6.62128
7.46717
8.21003
8.85748
9.40819
9.85146
10.1504
0.122121
0.116529
0.112737
0.11015
0.108562
0.109334
0.146993
0.479789
1.27631
2.28797
3.3757
4.4864
5.5558
6.53427
7.40406
8.16472
8.82426
9.38306
9.83203
10.1342
0.124569
0.183655
0.768596
1.57656
2.28848
3.00657
3.55405
3.7241
0.123514
0.139176
0.461536
1.38571
2.04515
2.76819
3.43364
3.93017
4.13446
4.21031
4.46757
4.82891
5.16379
5.66013
6.28636
6.86336
7.35171
7.69304
7.92651
8.06947
0.123078
0.125514
0.26348
0.992733
1.83643
2.5131
3.20475
3.87117
4.36844
4.68756
5.0714
5.54278
5.92293
6.36353
6.91191
7.44666
7.92725
8.29146
8.55297
8.71718
0.122837
0.121422
0.169199
0.642011
1.63132
2.28453
2.93437
3.65301
4.32641
4.85993
5.36789
5.897
6.43331
6.87089
7.3851
7.89942
8.36958
8.74765
9.03433
9.21921
0.122689
0.119969
0.134331
0.377651
1.21477
2.10193
2.65599
3.35073
4.09905
4.77679
5.39577
5.96938
6.62161
7.16711
7.70649
8.21562
8.6838
9.0789
9.38919
9.59381
0.122593
0.11925
0.123121
0.221887
0.824193
1.82
2.38474
3.01824
3.75489
4.50328
5.20694
5.82553
6.55373
7.18492
7.8546
8.40717
8.88777
9.30259
9.63594
9.85932
0.122531
0.118787
0.119471
0.152571
0.501811
1.36761
2.13777
2.70323
3.36399
4.10538
4.85183
5.53564
6.32005
7.07685
7.91316
8.49782
8.99921
9.43671
9.7928
10.0338
0.12249
0.118455
0.117987
0.128437
0.2868
0.941228
1.87107
2.41956
2.99401
3.65679
4.40349
5.17312
6.04412
6.97684
7.93008
8.509
9.03737
9.4997
9.87788
10.1351
0.122464
0.118206
0.117112
0.120506
0.172358
0.569941
1.39174
2.16265
2.68598
3.26391
3.9792
4.83974
5.86271
6.97916
7.84165
8.46321
9.02204
9.51017
9.9091
10.1806
0.122449
0.118011
0.116487
0.117887
0.132787
0.310643
0.935489
1.78869
2.42812
3.00675
3.74414
4.71558
5.87767
6.97402
7.71357
8.37975
8.97327
9.48668
9.9041
10.1875
0.12244
0.117832
0.115901
0.116297
0.120901
0.176402
0.546034
1.28085
2.12233
2.87852
3.76627
4.89023
5.88219
6.77921
7.57823
8.28769
8.91217
9.44725
9.87977
10.1724
0.1224
0.117494
0.114877
0.114005
0.11497
0.127165
0.274319
0.808776
1.61931
2.55245
3.5692
4.63066
5.66926
6.62126
7.46712
8.21002
8.8575
9.4082
9.85146
10.1504
0.122121
0.116529
0.112737
0.11015
0.108561
0.109333
0.146984
0.479744
1.27629
2.28799
3.3757
4.4864
5.55582
6.53426
7.40407
8.16477
8.82426
9.38306
9.83204
10.1342
0.124565
0.183399
0.768317
1.5762
2.28838
3.00602
3.55325
3.72273
0.123513
0.139088
0.461246
1.38579
2.04459
2.76676
3.43303
3.92913
4.13385
4.20977
4.46924
4.82896
5.16399
5.65784
6.28463
6.86257
7.35129
7.69262
7.92609
8.06904
0.123078
0.12549
0.263252
0.992682
1.83558
2.50995
3.2037
3.87041
4.36832
4.6868
5.06888
5.53609
5.92374
6.36424
6.91211
7.4458
7.92683
8.29117
8.55267
8.71688
0.122837
0.121416
0.169081
0.641872
1.63139
2.27882
2.93362
3.65251
4.32604
4.85914
5.36496
5.89121
6.43426
6.87229
7.38509
7.89913
8.3694
8.74746
9.03415
9.21902
0.122688
0.119968
0.134288
0.37748
1.21473
2.08995
2.65518
3.35008
4.09843
4.7758
5.39318
5.96483
6.61694
7.16146
7.70642
8.21555
8.6837
9.07877
9.38909
9.5937
0.122593
0.119249
0.123108
0.221761
0.824082
1.81989
2.3837
3.01745
3.75409
4.50214
5.20456
5.82166
6.54736
7.18075
7.85199
8.40718
8.88773
9.30253
9.63589
9.85927
0.122531
0.118786
0.119468
0.152511
0.501649
1.36766
2.13665
2.70207
3.36313
4.10431
4.84977
5.53272
6.31556
7.07357
7.91042
8.49785
8.99921
9.43669
9.79278
10.0338
0.12249
0.118454
0.117986
0.128412
0.286582
0.941019
1.87118
2.41875
2.9931
3.65574
4.40195
5.17063
6.04115
6.97383
7.93006
8.5091
9.03738
9.49968
9.87788
10.1351
0.122464
0.118206
0.117112
0.120505
0.172354
0.569969
1.39176
2.16197
2.685
3.26279
3.97786
4.83808
5.86073
6.97674
7.84177
8.46313
9.02208
9.51017
9.90911
10.1806
0.122449
0.118011
0.116487
0.117887
0.13278
0.310626
0.935465
1.78862
2.42742
3.00583
3.74299
4.71423
5.87623
6.974
7.71349
8.37974
8.9733
9.48668
9.9041
10.1875
0.12244
0.117832
0.115901
0.116297
0.1209
0.176392
0.545997
1.28075
2.12218
2.87776
3.76529
4.88922
5.88212
6.77918
7.57809
8.28764
8.91219
9.44726
9.87977
10.1724
0.1224
0.117494
0.114877
0.114005
0.11497
0.127159
0.274286
0.808661
1.6191
2.55236
3.56911
4.63054
5.66922
6.62124
7.46705
8.21001
8.85752
9.4082
9.85146
10.1504
0.122121
0.116529
0.112736
0.11015
0.108561
0.109331
0.146975
0.479689
1.27626
2.288
3.37569
4.48639
5.55584
6.53425
7.40407
8.1648
8.82427
9.38306
9.83204
10.1342
0.124561
0.183115
0.767907
1.57583
2.28821
3.00559
3.55182
3.72084
0.123512
0.138992
0.460865
1.38571
2.04435
2.76643
3.4328
3.92794
4.13226
4.20928
4.47016
4.82941
5.16472
5.65594
6.28318
6.86154
7.35105
7.69235
7.92581
8.06876
0.123077
0.125463
0.262978
0.992505
1.8353
2.50952
3.20328
3.86983
4.36768
4.68581
5.06851
5.5356
5.92461
6.36493
6.91232
7.44462
7.92654
8.29097
8.55248
8.71667
0.122837
0.121409
0.168948
0.641651
1.63134
2.2785
2.93347
3.65231
4.32569
4.8584
5.364
5.89
6.43525
6.87368
7.38519
7.89815
8.36926
8.74734
9.03401
9.21889
0.122688
0.119966
0.13424
0.377264
1.2146
2.08946
2.65498
3.34995
4.09827
4.77544
5.39256
5.96348
6.61755
7.16086
7.7064
8.21553
8.68364
9.0787
9.38901
9.59363
0.122593
0.119249
0.123095
0.221617
0.823906
1.81971
2.38331
3.01734
3.75406
4.50199
5.20403
5.82054
6.5453
7.18041
7.85166
8.40719
8.8877
9.3025
9.63585
9.85923
0.122531
0.118786
0.119464
0.152446
0.501453
1.36763
2.13619
2.70165
3.36305
4.10421
4.84928
5.53206
6.3139
7.07313
7.90969
8.49788
8.99921
9.43668
9.79277
10.0338
0.12249
0.118454
0.117985
0.128387
0.286351
0.940782
1.87122
2.41861
2.99294
3.65558
4.40156
5.16963
6.03999
6.97288
7.93007
8.50919
9.0374
9.49968
9.87788
10.1351
0.122464
0.118205
0.117112
0.120503
0.172343
0.569965
1.39175
2.16181
2.68473
3.26248
3.97734
4.83707
5.85956
6.97586
7.84183
8.46304
9.02212
9.51018
9.90911
10.1806
0.122449
0.118011
0.116487
0.117887
0.132772
0.310601
0.935432
1.78852
2.42722
3.00552
3.74241
4.71323
5.87494
6.97401
7.71344
8.37975
8.97334
9.48669
9.90411
10.1875
0.12244
0.117832
0.115901
0.116297
0.120899
0.176378
0.54595
1.28064
2.122
2.87736
3.76464
4.88837
5.88211
6.77917
7.57798
8.28762
8.91221
9.44727
9.87978
10.1724
0.1224
0.117495
0.114877
0.114005
0.11497
0.127152
0.274251
0.808544
1.61888
2.55224
3.56901
4.63043
5.66918
6.62121
7.46699
8.21001
8.85753
9.40821
9.85147
10.1504
0.122121
0.116529
0.112736
0.110149
0.10856
0.10933
0.146963
0.47963
1.27621
2.28799
3.37568
4.48637
5.55583
6.53423
7.40406
8.16483
8.82428
9.38307
9.83204
10.1342
0.124556
0.182811
0.767401
1.57521
2.28784
3.0054
3.55102
3.72003
0.123511
0.13889
0.460418
1.38553
2.04396
2.76679
3.43267
3.92718
4.13117
4.20925
4.47159
4.83016
5.16587
5.65439
6.28193
6.86076
7.35093
7.69218
7.92563
8.06858
0.123077
0.125434
0.26267
0.992228
1.8349
2.51119
3.20291
3.86937
4.36711
4.68498
5.06835
5.53544
5.92554
6.36558
6.91252
7.44376
7.92622
8.29082
8.55234
8.71654
0.122837
0.121402
0.168801
0.641359
1.63121
2.283
2.93326
3.65209
4.32531
4.85771
5.36325
5.88934
6.43624
6.87502
7.38539
7.89768
8.36919
8.74725
9.03393
9.2188
0.122688
0.119964
0.134189
0.377007
1.21441
2.10017
2.65475
3.34975
4.09803
4.77512
5.39228
5.96327
6.61887
7.16095
7.70643
8.21555
8.6836
9.07866
9.38896
9.59358
0.122593
0.119248
0.12308
0.221457
0.823679
1.81952
2.38292
3.01709
3.75385
4.50182
5.20394
5.82057
6.54499
7.18081
7.85172
8.40722
8.88769
9.30248
9.63583
9.85921
0.122531
0.118786
0.119461
0.152376
0.501226
1.36754
2.13575
2.70116
3.36285
4.10408
4.84914
5.5323
6.31374
7.07365
7.90974
8.49792
8.99922
9.43667
9.79276
10.0338
0.12249
0.118454
0.117984
0.128361
0.286111
0.94052
1.8712
2.41842
2.99273
3.65542
4.40142
5.16947
6.03996
6.97306
7.93005
8.50928
9.03743
9.49969
9.87788
10.1351
0.122464
0.118205
0.117111
0.1205
0.172325
0.569938
1.39171
2.16164
2.68446
3.26219
3.97705
4.83671
5.85956
6.97592
7.84183
8.46296
9.02216
9.51019
9.90911
10.1806
0.122449
0.118011
0.116487
0.117886
0.132762
0.310567
0.935366
1.78839
2.42698
3.00519
3.74196
4.7127
5.87502
6.97398
7.71349
8.37979
8.97338
9.4867
9.90411
10.1875
0.12244
0.117832
0.115901
0.116297
0.120897
0.17636
0.54589
1.28051
2.1218
2.87695
3.76408
4.88781
5.88203
6.77915
7.57798
8.28763
8.91223
9.44728
9.87978
10.1724
0.1224
0.117495
0.114877
0.114005
0.114969
0.127145
0.27421
0.808417
1.61866
2.55211
3.5689
4.6303
5.66916
6.62118
7.46697
8.20999
8.85754
9.40822
9.85147
10.1504
0.122121
0.116528
0.112735
0.110149
0.10856
0.109328
0.146951
0.479569
1.27616
2.28798
3.37566
4.48634
5.55582
6.53419
7.40402
8.16483
8.82432
9.38307
9.83205
10.1342
0.124551
0.182498
0.766839
1.57451
2.28745
3.00504
3.55068
3.72022
0.123509
0.138784
0.459925
1.38526
2.04342
2.76634
3.43247
3.92663
4.1306
4.20974
4.47312
4.83111
5.16737
5.65315
6.28081
6.86035
7.35086
7.69209
7.92553
8.06848
0.123077
0.125405
0.262336
0.991888
1.83432
2.5106
3.20243
3.86887
4.3667
4.68457
5.06853
5.53515
5.92653
6.36619
6.91268
7.44329
7.9261
8.29076
8.55226
8.71646
0.122836
0.121394
0.168645
0.641018
1.63101
2.28268
2.93288
3.65174
4.32487
4.85707
5.36238
5.88832
6.43723
6.8763
7.38565
7.89734
8.36914
8.7472
9.03388
9.21875
0.122688
0.119962
0.134135
0.376726
1.21417
2.0999
2.65439
3.3494
4.0976
4.77459
5.39172
5.96258
6.61936
7.16059
7.7065
8.21558
8.68357
9.07864
9.38894
9.59355
0.122593
0.119247
0.123064
0.221284
0.823411
1.81929
2.38239
3.01668
3.7535
4.50137
5.20351
5.82025
6.54427
7.18064
7.85152
8.40725
8.88769
9.30247
9.63582
9.8592
0.122531
0.118785
0.119457
0.152302
0.500973
1.36739
2.13515
2.70054
3.36246
4.1037
4.84878
5.53231
6.31322
7.07371
7.9095
8.49797
8.99923
9.43667
9.79276
10.0338
0.12249
0.118454
0.117982
0.128333
0.28586
0.940234
1.87113
2.41807
2.99231
3.65502
4.4011
5.16914
6.03966
6.97297
7.93004
8.50936
9.03746
9.49969
9.87788
10.1351
0.122464
0.118205
0.117111
0.120498
0.1723
0.569885
1.39164
2.16131
2.68401
3.26175
3.97664
4.83625
5.85933
6.97583
7.84181
8.46289
9.02219
9.5102
9.90912
10.1806
0.122449
0.118011
0.116487
0.117886
0.132752
0.310521
0.935289
1.78825
2.42661
3.00475
3.74146
4.7122
5.87484
6.97396
7.71354
8.37983
8.97341
9.48671
9.90412
10.1875
0.12244
0.117832
0.115901
0.116297
0.120895
0.17634
0.545819
1.28037
2.12159
2.87648
3.76353
4.88724
5.88199
6.77914
7.57799
8.28764
8.91226
9.44728
9.87979
10.1724
0.1224
0.117495
0.114877
0.114005
0.114969
0.127137
0.274163
0.808278
1.61844
2.55197
3.56878
4.63018
5.66916
6.62116
7.46696
8.20998
8.85756
9.40822
9.85148
10.1504
0.122121
0.116528
0.112735
0.110149
0.108559
0.109326
0.146937
0.479506
1.2761
2.28795
3.37563
4.4863
5.55581
6.53415
7.40398
8.16483
8.82435
9.38308
9.83205
10.1342
0.124545
0.18218
0.766247
1.57388
2.28709
3.00477
3.55065
3.7209
0.123508
0.138676
0.459402
1.38494
2.04291
2.76533
3.43241
3.92641
4.13039
4.21038
4.47418
4.83226
5.16915
5.65223
6.27985
6.86002
7.35084
7.69205
7.92549
8.06842
0.123076
0.125375
0.261988
0.991503
1.83373
2.50795
3.20212
3.86862
4.36651
4.68448
5.06911
5.53553
5.92757
6.36677
6.91281
7.4427
7.92581
8.29073
8.55223
8.71643
0.122836
0.121386
0.168485
0.640647
1.63075
2.27726
2.93258
3.65155
4.32471
4.85666
5.36191
5.88776
6.4382
6.87752
7.38594
7.89709
8.36914
8.74718
9.03386
9.21873
0.122688
0.11996
0.13408
0.376423
1.21386
2.08826
2.65395
3.34909
4.09738
4.77431
5.39136
5.96202
6.6197
7.16005
7.70661
8.21563
8.68357
9.07862
9.38893
9.59354
0.122593
0.119246
0.123049
0.221102
0.823111
1.81898
2.38177
3.01624
3.75316
4.5011
5.20325
5.81983
6.54355
7.18029
7.85119
8.40729
8.8877
9.30247
9.63582
9.85919
0.122531
0.118785
0.119452
0.152226
0.500706
1.36721
2.13454
2.69989
3.36204
4.10339
4.84843
5.5322
6.31253
7.07362
7.9092
8.49801
8.99925
9.43668
9.79276
10.0338
0.12249
0.118453
0.117981
0.128305
0.285603
0.939934
1.87102
2.41765
2.99189
3.65466
4.40072
5.16875
6.03922
6.97277
7.93007
8.5094
9.03749
9.4997
9.87788
10.1351
0.122464
0.118205
0.117111
0.120495
0.172271
0.569821
1.39155
2.16099
2.68358
3.2613
3.97619
4.83571
5.85893
6.97572
7.84179
8.46279
9.02221
9.51021
9.90913
10.1806
0.122449
0.118011
0.116487
0.117885
0.132741
0.310469
0.935196
1.78809
2.42625
3.00429
3.74092
4.71162
5.87431
6.97394
7.71352
8.37983
8.97345
9.48672
9.90413
10.1875
0.12244
0.117832
0.115901
0.116297
0.120893
0.176316
0.54574
1.28022
2.12138
2.87601
3.76298
4.88665
5.88192
6.7791
7.57793
8.28763
8.91227
9.44729
9.87979
10.1724
0.1224
0.117495
0.114877
0.114005
0.114968
0.127128
0.274113
0.808139
1.61822
2.55181
3.56864
4.63006
5.66911
6.62114
7.46691
8.20998
8.85757
9.40823
9.85148
10.1504
0.122121
0.116528
0.112735
0.110148
0.108558
0.109324
0.146923
0.479435
1.27603
2.28792
3.37559
4.48626
5.55581
6.53413
7.40396
8.16484
8.82435
9.38309
9.83205
10.1342
0.12454
0.18186
0.765639
1.57329
2.28684
3.00477
3.55058
3.72128
0.123507
0.138568
0.458864
1.38459
2.0425
2.76574
3.43243
3.92624
4.13029
4.21097
4.47457
4.83361
5.17121
5.65161
6.27901
6.85982
7.35086
7.69204
7.92548
8.06841
0.123076
0.125344
0.26163
0.991086
1.83324
2.5096
3.20189
3.86844
4.36647
4.68472
5.06993
5.53605
5.92865
6.36734
6.91292
7.44259
7.92578
8.29073
8.55223
8.71642
0.122836
0.121379
0.168319
0.640246
1.63046
2.28174
2.93234
3.65145
4.32466
4.85655
5.36182
5.88746
6.43915
6.87866
7.38626
7.89692
8.36916
8.74718
9.03386
9.21872
0.122688
0.119958
0.134023
0.376104
1.21355
2.09888
2.65368
3.34894
4.09724
4.77413
5.39118
5.9617
6.62012
7.16001
7.70675
8.2157
8.68358
9.07863
9.38893
9.59354
0.122593
0.119246
0.123033
0.220914
0.82279
1.81869
2.38131
3.01595
3.75298
4.50092
5.2031
5.81975
6.54315
7.18014
7.85111
8.40734
8.88772
9.30247
9.63582
9.85919
0.122531
0.118785
0.119448
0.152147
0.500421
1.367
2.134
2.69938
3.36179
4.10318
4.84826
5.53232
6.31212
7.07362
7.90904
8.49806
8.99927
9.43668
9.79277
10.0338
0.12249
0.118453
0.117979
0.128276
0.285343
0.939624
1.87088
2.41733
2.99156
3.65434
4.40047
5.16851
6.03893
6.97268
7.93011
8.50944
9.03752
9.49971
9.87789
10.1351
0.122464
0.118205
0.11711
0.120492
0.172237
0.56973
1.39145
2.16068
2.68318
3.26092
3.97583
4.83529
5.8587
6.97557
7.84177
8.46269
9.02222
9.51022
9.90913
10.1806
0.122449
0.118011
0.116486
0.117884
0.132729
0.310414
0.935095
1.78791
2.42589
3.00391
3.74048
4.71116
5.87408
6.97392
7.71351
8.37982
8.97348
9.48673
9.90413
10.1875
0.12244
0.117832
0.115901
0.116297
0.120891
0.176292
0.545652
1.28005
2.12115
2.87559
3.76252
4.88621
5.88184
6.77906
7.57788
8.28762
8.91229
9.4473
9.8798
10.1724
0.1224
0.117495
0.114877
0.114005
0.114968
0.12712
0.274062
0.807992
1.61799
2.55166
3.56851
4.62994
5.66906
6.62112
7.46686
8.20998
8.85758
9.40824
9.85148
10.1504
0.122121
0.116527
0.112734
0.110148
0.108558
0.109322
0.146908
0.479366
1.27596
2.28789
3.37554
4.48621
5.55579
6.53412
7.40393
8.16484
8.82435
9.38309
9.83206
10.1342
0.124534
0.181542
0.765009
1.57269
2.28656
3.00468
3.5506
3.7225
0.123505
0.138459
0.458309
1.38421
2.04207
2.76553
3.43245
3.92629
4.13043
4.21143
4.4743
4.83519
5.17353
5.65131
6.27829
6.85966
7.3509
7.69207
7.9255
8.06843
0.123075
0.125314
0.261262
0.990637
1.83272
2.5092
3.20173
3.86838
4.36647
4.685
5.07082
5.53654
5.9298
6.36789
6.91301
7.44228
7.92561
8.29076
8.55225
8.71644
0.122836
0.121371
0.16815
0.639826
1.63014
2.28136
2.93211
3.65139
4.32464
4.85644
5.36185
5.88737
6.44008
6.87974
7.38659
7.89685
8.3692
8.7472
9.03388
9.21874
0.122688
0.119956
0.133965
0.375772
1.21321
2.09855
2.65337
3.34877
4.09716
4.77403
5.39106
5.96154
6.62056
7.15987
7.70692
8.21578
8.68361
9.07864
9.38894
9.59355
0.122593
0.119245
0.123016
0.220719
0.822446
1.81838
2.38084
3.01562
3.75278
4.5008
5.20305
5.81965
6.54292
7.18001
7.85098
8.40739
8.88774
9.30248
9.63583
9.8592
0.122531
0.118784
0.119444
0.152066
0.500125
1.36675
2.1335
2.69886
3.3615
4.10302
4.84814
5.53244
6.31179
7.07366
7.90893
8.49811
8.9993
9.43669
9.79278
10.0338
0.12249
0.118453
0.117978
0.128247
0.285078
0.939299
1.8707
2.41699
2.99126
3.65412
4.40029
5.16839
6.03876
6.97268
7.93014
8.50946
9.03755
9.49973
9.87789
10.1351
0.122464
0.118205
0.11711
0.120488
0.1722
0.569634
1.39133
2.16044
2.68286
3.26058
3.97552
4.83494
5.85853
6.97562
7.84174
8.46261
9.02224
9.51023
9.90914
10.1806
0.122449
0.118011
0.116486
0.117884
0.132716
0.31035
0.934981
1.78772
2.42561
3.00351
3.74002
4.71067
5.87379
6.9739
7.71349
8.37981
8.9735
9.48674
9.90413
10.1875
0.12244
0.117832
0.115901
0.116297
0.120889
0.176265
0.545564
1.27989
2.12091
2.87518
3.76205
4.88577
5.88177
6.77902
7.57783
8.28761
8.91231
9.44731
9.8798
10.1724
0.1224
0.117495
0.114877
0.114004
0.114967
0.127111
0.274007
0.807845
1.61777
2.55149
3.56837
4.62981
5.66901
6.6211
7.46682
8.20997
8.85758
9.40824
9.85149
10.1504
0.122121
0.116527
0.112734
0.110147
0.108557
0.10932
0.146892
0.479289
1.27588
2.28784
3.37549
4.48615
5.55578
6.5341
7.40391
8.16484
8.82435
9.3831
9.83206
10.1342
0.19154
0.180646
0.883934
0.139446
0.543701
0.127792
0.301081
1.1378
1.79307
2.52689
3.15969
3.47153
0.124528
0.181222
0.764362
1.57209
2.28628
3.00459
3.55067
3.72281
0.123504
0.138349
0.457741
1.3838
2.04164
2.76527
3.43249
3.92633
4.13043
4.21171
4.47344
4.83703
5.17612
5.65132
6.2777
6.85959
7.35098
7.69214
7.92556
8.06849
0.123075
0.125283
0.260887
0.990157
1.83223
2.50877
3.20152
3.86825
4.36655
4.68545
5.0717
5.53709
5.93102
6.36847
6.9131
7.44222
7.9256
8.29081
8.55229
8.71648
0.122836
0.121363
0.167977
0.639378
1.62979
2.28108
2.93185
3.65132
4.32467
4.85644
5.36202
5.88732
6.44099
6.88075
7.38693
7.8968
8.36926
8.74724
9.03391
9.21878
0.122688
0.119954
0.133906
0.375426
1.21284
2.09835
2.65308
3.34862
4.0971
4.77394
5.39097
5.96134
6.62081
7.15985
7.70711
8.21587
8.68365
9.07867
9.38897
9.59358
0.122593
0.119244
0.122999
0.22052
0.822084
1.81806
2.38039
3.01531
3.75264
4.5007
5.20298
5.81962
6.54268
7.17986
7.85097
8.40745
8.88777
9.3025
9.63585
9.85922
0.122531
0.118784
0.11944
0.151982
0.499813
1.36648
2.133
2.69839
3.36123
4.10284
4.84803
5.53259
6.31151
7.07364
7.90883
8.49815
8.99932
9.4367
9.79279
10.0338
0.12249
0.118453
0.117976
0.128218
0.284812
0.938964
1.8705
2.41666
2.99092
3.65383
4.40009
5.16825
6.03855
6.97267
7.93016
8.50948
9.03757
9.49974
9.8779
10.1351
0.122464
0.118205
0.11711
0.120485
0.172158
0.569514
1.39119
2.16017
2.6825
3.26022
3.97518
4.83459
5.85836
6.97557
7.84171
8.46253
9.02225
9.51024
9.90914
10.1806
0.122449
0.118011
0.116486
0.117883
0.132703
0.310284
0.934861
1.78753
2.4253
3.00315
3.73964
4.71029
5.87367
6.97388
7.71348
8.37979
8.97352
9.48675
9.90414
10.1875
0.12244
0.117832
0.115901
0.116296
0.120886
0.176238
0.54547
1.27971
2.12065
2.87482
3.76167
4.88544
5.88169
6.77899
7.5778
8.2876
8.91232
9.44731
9.8798
10.1724
0.1224
0.117495
0.114877
0.114004
0.114966
0.127102
0.273951
0.80769
1.61754
2.55132
3.56822
4.62969
5.66896
6.62107
7.46679
8.20997
8.85759
9.40825
9.85149
10.1504
0.122121
0.116527
0.112733
0.110147
0.108556
0.109318
0.146876
0.479215
1.27579
2.28779
3.37543
4.48609
5.55575
6.53407
7.40388
8.16483
8.82434
9.3831
9.83206
10.1342
0.262026
0.667434
0.766623
0.191196
0.87381
1.42419
0.180321
0.883965
1.51257
0.139361
0.54292
1.32265
0.12777
0.300424
1.1373
1.79267
2.52688
3.16006
3.47364
0.124522
0.180898
0.763686
1.5715
2.28602
3.00443
3.55085
3.72434
0.123502
0.138238
0.457147
1.38334
2.0412
2.76436
3.43252
3.92677
4.13068
4.21181
4.47213
4.8392
5.17899
5.65167
6.27729
6.85958
7.3511
7.69225
7.92567
8.0686
0.123074
0.125252
0.260496
0.98964
1.83171
2.50625
3.20141
3.86823
4.3667
4.68604
5.07267
5.53763
5.93234
6.3691
6.91321
7.44221
7.92557
8.2909
8.55238
8.71657
0.122835
0.121355
0.1678
0.638905
1.62937
2.27584
2.93169
3.65127
4.32475
4.85657
5.36236
5.8873
6.44192
6.88173
7.38728
7.89682
8.36936
8.7473
9.03398
9.21884
0.122688
0.119952
0.133846
0.375062
1.21241
2.08689
2.65283
3.3485
4.09708
4.77392
5.39091
5.96114
6.62099
7.15973
7.70732
8.21598
8.68372
9.07871
9.389
9.59362
0.122593
0.119244
0.122982
0.220312
0.821693
1.81764
2.37994
3.01502
3.75247
4.50061
5.2029
5.81951
6.5424
7.17963
7.85083
8.40752
8.88781
9.30252
9.63587
9.85924
0.12253
0.118784
0.119435
0.151897
0.49949
1.36618
2.13253
2.69792
3.36096
4.10267
4.84791
5.53263
6.31114
7.07352
7.90869
8.49819
8.99935
9.43672
9.7928
10.0338
0.12249
0.118453
0.117975
0.128188
0.284539
0.938616
1.87027
2.41633
2.99062
3.65358
4.39989
5.16811
6.03831
6.97254
7.93018
8.50949
9.03759
9.49975
9.87791
10.1351
0.122464
0.118204
0.117109
0.120481
0.172114
0.569385
1.39103
2.15991
2.68218
3.25987
3.97487
4.83424
5.85817
6.97548
7.84168
8.46245
9.02225
9.51025
9.90915
10.1806
0.122449
0.11801
0.116486
0.117882
0.13269
0.310211
0.934727
1.78732
2.42497
3.00277
3.73922
4.70978
5.87336
6.97385
7.71346
8.37977
8.97354
9.48676
9.90414
10.1875
0.12244
0.117832
0.115901
0.116296
0.120884
0.176208
0.545368
1.27952
2.1204
2.87442
3.76121
4.88503
5.88159
6.77895
7.57776
8.28759
8.91233
9.44732
9.8798
10.1724
0.1224
0.117495
0.114877
0.114004
0.114965
0.127092
0.273893
0.807537
1.61731
2.55113
3.56807
4.62956
5.66887
6.62104
7.46675
8.20997
8.85759
9.40825
9.85149
10.1504
0.122121
0.116527
0.112733
0.110147
0.108555
0.109316
0.146859
0.479134
1.2757
2.28772
3.37536
4.48602
5.55572
6.53404
7.40384
8.16483
8.82434
9.3831
9.83206
10.1342
0.26277
0.678092
0.773635
0.771777
0.190871
0.871719
1.42213
1.73108
0.180009
0.883989
1.51283
2.10407
0.139276
0.542141
1.32196
2.00476
0.127747
0.299753
1.13676
1.79224
2.52682
3.16038
3.4736
0.124516
0.180567
0.762964
1.57081
2.28567
3.00439
3.55063
3.72442
0.1235
0.138125
0.45652
1.38282
2.04065
2.76408
3.43254
3.92682
4.13062
4.21162
4.47022
4.84171
5.18217
5.6524
6.27703
6.85961
7.35127
7.69245
7.92587
8.06879
0.123074
0.125219
0.260089
0.989067
1.83106
2.50575
3.20122
3.86816
4.3668
4.6865
5.07327
5.53864
5.93379
6.36981
6.91336
7.44216
7.92557
8.29106
8.55253
8.71672
0.122835
0.121347
0.167615
0.638389
1.6289
2.27521
2.93139
3.6511
4.32469
4.85658
5.36273
5.88746
6.44285
6.88267
7.38764
7.89674
8.36948
8.7474
9.03407
9.21893
0.122688
0.11995
0.133783
0.374678
1.21194
2.08612
2.6524
3.34822
4.09688
4.77371
5.39084
5.96105
6.6213
7.15995
7.70756
8.21611
8.68379
9.07876
9.38906
9.59368
0.122593
0.119243
0.122965
0.220095
0.821268
1.81719
2.37937
3.01458
3.75218
4.50037
5.20276
5.81959
6.54237
7.17966
7.8509
8.40759
8.88785
9.30255
9.6359
9.85928
0.12253
0.118783
0.119431
0.151809
0.499146
1.36583
2.13195
2.69734
3.36058
4.10239
4.84772
5.53279
6.31102
7.07362
7.90865
8.49824
8.99938
9.43674
9.79281
10.0338
0.12249
0.118453
0.117973
0.128157
0.28426
0.938248
1.87001
2.4159
2.99021
3.65323
4.39961
5.16802
6.03819
6.97263
7.9302
8.50949
9.03761
9.49976
9.87791
10.1351
0.122464
0.118204
0.117109
0.120477
0.172064
0.569237
1.39085
2.15959
2.68175
3.25945
3.97447
4.83389
5.85801
6.97554
7.84165
8.46239
9.02225
9.51026
9.90915
10.1806
0.122449
0.11801
0.116486
0.117882
0.132675
0.310131
0.934585
1.78709
2.42464
3.00236
3.73877
4.70934
5.87312
6.97383
7.71344
8.37974
8.97355
9.48677
9.90414
10.1875
0.12244
0.117832
0.115901
0.116296
0.120881
0.176177
0.545259
1.27933
2.12013
2.87404
3.76081
4.88473
5.88151
6.7789
7.57773
8.28758
8.91234
9.44732
9.8798
10.1724
0.1224
0.117495
0.114877
0.114004
0.114965
0.127082
0.27383
0.807374
1.61708
2.55095
3.5679
4.62942
5.66882
6.621
7.46672
8.20996
8.8576
9.40825
9.85149
10.1504
0.122121
0.116527
0.112733
0.110146
0.108555
0.109314
0.146841
0.479052
1.27559
2.28765
3.37528
4.48594
5.55569
6.53401
7.40381
8.16482
8.82433
9.3831
9.83206
10.1342
0.263571
0.688086
0.779737
0.777526
0.520221
0.190566
0.869813
1.42046
1.73101
1.84752
0.179707
0.884007
1.51277
2.10374
2.55163
0.139189
0.54135
1.32127
2.00457
2.66992
3.12185
0.127723
0.29906
1.13614
1.7918
2.52681
3.16096
3.47597
0.12451
0.180223
0.762164
1.57022
2.2854
3.00449
3.5512
3.72583
0.123499
0.138008
0.455831
1.3822
2.04024
2.76446
3.43244
3.92748
4.13083
4.2112
4.46826
4.8446
5.18569
5.65354
6.27701
6.85989
7.35157
7.69273
7.92615
8.06908
0.123073
0.125186
0.25965
0.988412
1.83061
2.50744