/*--------------------------------*- C++ -*----------------------------------*\
  =========                 |
  \\      /  F ield         | OpenFOAM: The Open Source CFD Toolbox
   \\    /   O peration     | Website:  https://openfoam.org
    \\  /    A nd           | Version:  10
     \\/     M anipulation  |
\*---------------------------------------------------------------------------*/
FoamFile
{
    format      ascii;
    class       volScalarField;
    location    "2000";
    object      omega;
}
// * * * * * * * * * * * * * * * * * * * * * * * * * * * * * * * * * * * * * //

dimensions      [0 0 -1 0 0 0 0];

internalField   nonuniform List<scalar> 
8810
(
0.657253
0.348518
0.285528
0.294625
0.310603
0.321463
0.339412
0.386548
0.659574
0.34306
0.250538
0.24948
0.26739
0.284021
0.300857
0.327158
0.366136
0.401694
0.409834
0.390976
0.35833
0.315665
0.281237
0.255221
0.235215
0.220251
0.208857
0.201933
0.661094
0.342973
0.230924
0.215772
0.230969
0.250667
0.269454
0.288094
0.308842
0.326428
0.328894
0.316582
0.294672
0.268192
0.243892
0.223507
0.207271
0.194234
0.184036
0.177644
0.662337
0.343825
0.222636
0.190839
0.201183
0.220549
0.240776
0.258108
0.271588
0.280728
0.280537
0.271287
0.254959
0.235201
0.216158
0.199469
0.185623
0.174015
0.164696
0.158697
0.663511
0.344553
0.220443
0.173865
0.176922
0.194345
0.214206
0.23213
0.243979
0.249903
0.248684
0.241066
0.227264
0.211031
0.195021
0.18046
0.168132
0.157574
0.148929
0.14324
0.664648
0.345128
0.220345
0.16429
0.157231
0.171856
0.190516
0.208182
0.220865
0.226578
0.225543
0.218572
0.207151
0.192444
0.177964
0.164734
0.153465
0.143726
0.135635
0.130209
0.665745
0.345673
0.220593
0.160368
0.142043
0.152236
0.16938
0.186607
0.199795
0.206763
0.206708
0.200639
0.189827
0.176628
0.163271
0.151153
0.140781
0.131764
0.124179
0.118998
0.666794
0.346244
0.220759
0.15935
0.131932
0.135523
0.15033
0.166898
0.180302
0.188214
0.189362
0.184007
0.174144
0.162026
0.149994
0.139048
0.129601
0.121305
0.114222
0.10929
0.667793
0.346842
0.22094
0.159232
0.126477
0.12131
0.133516
0.148777
0.162216
0.170355
0.171721
0.16699
0.158549
0.148086
0.137811
0.128211
0.119741
0.112204
0.10564
0.100967
0.668746
0.34745
0.221106
0.159162
0.124535
0.110718
0.118314
0.132206
0.144838
0.152886
0.154248
0.150297
0.143492
0.135164
0.126813
0.11871
0.111265
0.10451
0.0984655
0.0940514
0.669651
0.34803
0.221234
0.158889
0.123654
0.104143
0.104629
0.116687
0.128177
0.135563
0.13763
0.135325
0.130083
0.123881
0.117357
0.110764
0.104421
0.0984076
0.092839
0.0886603
0.670442
0.348338
0.220888
0.157861
0.122014
0.0999657
0.0922819
0.100589
0.111045
0.118441
0.122224
0.122155
0.119267
0.115148
0.11029
0.105007
0.0995779
0.0941545
0.0889517
0.0849498
0.670546
0.347565
0.219227
0.155379
0.118771
0.0956646
0.0816218
0.0821844
0.0931137
0.103894
0.110937
0.113504
0.112901
0.110298
0.106491
0.101983
0.0970805
0.0919831
0.0869749
0.0830586
0.657265
0.348386
0.285296
0.294403
0.310424
0.32097
0.338591
0.385853
0.659584
0.34302
0.250386
0.24932
0.267243
0.283742
0.30044
0.326768
0.365715
0.40094
0.408539
0.389166
0.355574
0.31256
0.279959
0.255196
0.235247
0.22028
0.208882
0.201956
0.661103
0.342966
0.230836
0.215658
0.23085
0.250465
0.26924
0.287989
0.308617
0.32606
0.328206
0.315467
0.292937
0.266112
0.242862
0.223488
0.207291
0.194252
0.184052
0.177658
0.662345
0.343826
0.222599
0.190756
0.201091
0.220398
0.240609
0.258046
0.271464
0.280531
0.280137
0.270581
0.25429
0.234291
0.215441
0.199453
0.185635
0.174027
0.164706
0.158707
0.663518
0.344557
0.220434
0.173808
0.176852
0.194217
0.214049
0.232075
0.2439
0.249788
0.248431
0.240198
0.226565
0.210529
0.194496
0.180445
0.16814
0.157581
0.148936
0.143246
0.664655
0.345131
0.220344
0.164258
0.157177
0.171746
0.190386
0.20813
0.220808
0.226503
0.225371
0.218322
0.206884
0.192085
0.177561
0.164719
0.153469
0.14373
0.13564
0.130213
0.665751
0.345676
0.220595
0.160356
0.142002
0.152202
0.16933
0.18654
0.199743
0.206708
0.206581
0.200437
0.189688
0.176341
0.162958
0.151133
0.140783
0.131767
0.124182
0.119001
0.666799
0.346246
0.220762
0.159347
0.131902
0.135486
0.150307
0.16686
0.180257
0.188169
0.189258
0.183848
0.174032
0.161799
0.149763
0.139029
0.129599
0.121306
0.114223
0.109291
0.667798
0.346845
0.220941
0.159233
0.126469
0.121295
0.133495
0.148745
0.162178
0.170316
0.171631
0.166859
0.15846
0.147918
0.137542
0.128087
0.119735
0.112205
0.105641
0.100967
0.66875
0.347452
0.221107
0.159163
0.124534
0.110705
0.118298
0.132182
0.144808
0.152855
0.154177
0.150203
0.14343
0.135053
0.126623
0.118612
0.11126
0.10451
0.098466
0.0940518
0.669655
0.348031
0.221235
0.158889
0.123655
0.104141
0.104618
0.116671
0.128156
0.135534
0.137577
0.135269
0.130049
0.123822
0.117257
0.110711
0.104419
0.0984078
0.0928392
0.0886605
0.670446
0.348337
0.220888
0.157861
0.122013
0.0999653
0.0922755
0.100577
0.111027
0.118425
0.122202
0.12213
0.119256
0.115129
0.110256
0.104987
0.0995767
0.0941545
0.0889517
0.0849499
0.670549
0.347564
0.219226
0.155378
0.11877
0.0956635
0.0816185
0.0821757
0.0931051
0.103889
0.110931
0.113501
0.1129
0.110296
0.106486
0.10198
0.0970801
0.0919831
0.0869749
0.0830586
0.657267
0.34832
0.285282
0.294435
0.310474
0.321007
0.338627
0.385934
0.659587
0.342988
0.25036
0.249338
0.267277
0.283777
0.300496
0.326833
0.365703
0.400865
0.408385
0.389254
0.355756
0.31282
0.280109
0.255222
0.235285
0.220314
0.208912
0.201982
0.661107
0.34295
0.230809
0.215665
0.230871
0.250481
0.269257
0.288008
0.30862
0.326038
0.328161
0.315471
0.292934
0.26608
0.242839
0.223506
0.207314
0.194274
0.184071
0.177675
0.662349
0.343816
0.22258
0.190752
0.201104
0.220421
0.240636
0.258068
0.271472
0.280524
0.280116
0.270579
0.25422
0.234199
0.215442
0.199466
0.18565
0.17404
0.164719
0.158718
0.663522
0.344548
0.220424
0.173797
0.176857
0.194231
0.214061
0.23209
0.243907
0.249785
0.24842
0.240231
0.226641
0.21054
0.194493
0.180453
0.16815
0.15759
0.148944
0.143254
0.664659
0.345125
0.22034
0.164248
0.157177
0.171748
0.190386
0.208137
0.220813
0.226503
0.225366
0.218316
0.206809
0.192093
0.177555
0.164723
0.153476
0.143736
0.135645
0.130218
0.665756
0.345671
0.220592
0.16035
0.141997
0.152209
0.169324
0.18653
0.199745
0.206709
0.206579
0.200431
0.189698
0.176347
0.162953
0.151135
0.140787
0.131771
0.124185
0.119004
0.666804
0.346243
0.220761
0.159344
0.131892
0.135479
0.150316
0.166865
0.180257
0.188168
0.189258
0.183846
0.174034
0.161803
0.149758
0.139025
0.129601
0.121309
0.114226
0.109293
0.667803
0.346842
0.220939
0.159232
0.126469
0.121298
0.133497
0.148746
0.162176
0.170313
0.171628
0.166855
0.158459
0.14792
0.137553
0.128099
0.119734
0.112206
0.105642
0.100968
0.668755
0.347451
0.221106
0.159163
0.124533
0.110705
0.118299
0.132182
0.144806
0.152853
0.154173
0.150196
0.143429
0.135054
0.126617
0.118605
0.11126
0.104511
0.0984666
0.0940524
0.66966
0.34803
0.221234
0.158889
0.123655
0.104141
0.104619
0.11667
0.128154
0.135527
0.137569
0.135265
0.130048
0.123822
0.117252
0.110707
0.104419
0.0984082
0.0928395
0.0886607
0.67045
0.348337
0.220887
0.157861
0.122013
0.099965
0.0922752
0.100576
0.111022
0.118423
0.122201
0.122126
0.119255
0.115127
0.110252
0.104984
0.0995767
0.0941546
0.0889518
0.0849499
0.670554
0.347563
0.219225
0.155377
0.11877
0.0956631
0.0816178
0.0821732
0.0931036
0.103889
0.11093
0.1135
0.112901
0.110297
0.106486
0.10198
0.0970802
0.0919831
0.0869749
0.0830586
0.657269
0.348258
0.285261
0.294452
0.310505
0.321025
0.338636
0.385927
0.659591
0.34296
0.250333
0.249348
0.2673
0.2838
0.300533
0.326862
0.365647
0.400746
0.408209
0.389309
0.355821
0.313052
0.280253
0.255249
0.235317
0.220344
0.208938
0.202006
0.661111
0.342938
0.230782
0.215669
0.230885
0.250491
0.269267
0.288017
0.308608
0.326002
0.328113
0.31547
0.292913
0.266062
0.242841
0.223522
0.207336
0.194293
0.184088
0.177691
0.662353
0.343808
0.222562
0.190747
0.201113
0.220438
0.240657
0.258084
0.271476
0.280511
0.280095
0.270575
0.254158
0.234122
0.215456
0.199478
0.185665
0.174053
0.16473
0.158729
0.663526
0.344543
0.220415
0.173787
0.176861
0.194242
0.214072
0.232102
0.243913
0.249781
0.248409
0.240261
0.226702
0.210543
0.194503
0.180461
0.168159
0.157598
0.148951
0.143261
0.664663
0.34512
0.220336
0.164238
0.157176
0.171749
0.190387
0.208143
0.220818
0.226502
0.225362
0.218317
0.206752
0.192095
0.177562
0.164728
0.153482
0.143741
0.13565
0.130223
0.66576
0.345667
0.220589
0.160344
0.141991
0.152213
0.169319
0.186521
0.199747
0.20671
0.206579
0.200428
0.189703
0.17635
0.162956
0.151138
0.140791
0.131774
0.124188
0.119007
0.666808
0.34624
0.22076
0.159341
0.131882
0.135472
0.150323
0.166869
0.180257
0.188167
0.189259
0.183845
0.174036
0.161803
0.149759
0.139026
0.129603
0.121311
0.114228
0.109295
0.667807
0.346839
0.220938
0.159231
0.126468
0.121301
0.1335
0.148747
0.162174
0.170311
0.171626
0.166852
0.158458
0.147918
0.137563
0.128112
0.119735
0.112207
0.105643
0.10097
0.66876
0.347448
0.221105
0.159162
0.124532
0.110704
0.1183
0.132181
0.144804
0.152852
0.15417
0.150191
0.143427
0.135053
0.126612
0.118603
0.111261
0.104512
0.0984674
0.094053
0.669664
0.348029
0.221234
0.158889
0.123655
0.10414
0.104619
0.11667
0.128153
0.13552
0.137562
0.135262
0.130047
0.12382
0.117249
0.110706
0.104419
0.0984085
0.0928398
0.0886609
0.670455
0.348337
0.220887
0.15786
0.122013
0.0999647
0.0922746
0.100575
0.111017
0.11842
0.122199
0.122122
0.119253
0.115126
0.11025
0.104983
0.099577
0.0941548
0.0889519
0.08495
0.670558
0.347562
0.219224
0.155377
0.118769
0.0956627
0.0816169
0.0821707
0.093102
0.103889
0.11093
0.113498
0.112901
0.110297
0.106486
0.10198
0.0970805
0.0919831
0.086975
0.0830586
0.657272
0.348197
0.285224
0.294447
0.310513
0.321039
0.338622
0.385869
0.659594
0.342935
0.2503
0.249344
0.267308
0.283817
0.300551
0.326859
0.365552
0.400579
0.407979
0.389303
0.355816
0.31324
0.280369
0.255267
0.235339
0.220364
0.208957
0.202024
0.661114
0.342927
0.230754
0.215665
0.23089
0.250491
0.26927
0.288011
0.308574
0.32594
0.328043
0.315465
0.292887
0.266046
0.242844
0.223532
0.207351
0.194307
0.184101
0.177704
0.662356
0.343803
0.222545
0.190738
0.201115
0.220444
0.240671
0.258091
0.271468
0.280487
0.280064
0.270565
0.254107
0.234056
0.215463
0.199487
0.185675
0.174063
0.164739
0.158737
0.663529
0.344539
0.220408
0.173775
0.176861
0.194244
0.214078
0.23211
0.243913
0.249772
0.248395
0.240283
0.226749
0.210542
0.194511
0.180467
0.168166
0.157605
0.148957
0.143266
0.664667
0.345117
0.220332
0.164228
0.157172
0.171745
0.190385
0.208145
0.220819
0.226499
0.225357
0.218317
0.206706
0.192095
0.177567
0.164732
0.153486
0.143746
0.135654
0.130226
0.665763
0.345665
0.220588
0.160338
0.141985
0.152216
0.169312
0.186512
0.199747
0.206709
0.206577
0.200425
0.189705
0.176351
0.162959
0.15114
0.140794
0.131777
0.124191
0.119009
0.666812
0.346239
0.22076
0.159338
0.131872
0.135465
0.150328
0.166871
0.180256
0.188166
0.189259
0.183844
0.174037
0.161802
0.149759
0.139027
0.129605
0.121313
0.114229
0.109297
0.667811
0.346839
0.220936
0.15923
0.126467
0.121303
0.133502
0.148747
0.162172
0.170309
0.171624
0.166849
0.158458
0.147917
0.137572
0.128122
0.119735
0.112208
0.105644
0.100971
0.668763
0.347448
0.221104
0.159162
0.124532
0.110704
0.1183
0.132181
0.144802
0.15285
0.154166
0.150186
0.143425
0.135051
0.12661
0.118601
0.111261
0.104512
0.098468
0.0940535
0.669668
0.348029
0.221233
0.158888
0.123655
0.10414
0.104618
0.116669
0.128151
0.135514
0.137555
0.135258
0.130046
0.123818
0.117246
0.110705
0.104419
0.0984088
0.0928401
0.0886611
0.670459
0.348337
0.220886
0.15786
0.122013
0.0999644
0.0922738
0.100574
0.111012
0.118417
0.122197
0.122118
0.119252
0.115125
0.110247
0.104982
0.0995773
0.0941549
0.088952
0.0849501
0.670561
0.347561
0.219223
0.155377
0.118769
0.0956622
0.0816161
0.082168
0.0930999
0.103889
0.110928
0.113497
0.112901
0.110297
0.106485
0.10198
0.0970808
0.0919832
0.086975
0.0830586
0.657276
0.348133
0.285172
0.294422
0.310502
0.321038
0.338597
0.385793
0.659597
0.342911
0.250259
0.249327
0.267302
0.283821
0.300556
0.326838
0.36544
0.400385
0.407715
0.389229
0.355748
0.313388
0.280462
0.255278
0.235352
0.220378
0.208969
0.202036
0.661117
0.34292
0.230724
0.215652
0.230884
0.250483
0.269265
0.287995
0.308524
0.325861
0.327954
0.315456
0.292854
0.266029
0.242844
0.223537
0.207361
0.194317
0.18411
0.177712
0.662359
0.3438
0.222528
0.190725
0.20111
0.220442
0.240676
0.258091
0.271452
0.280453
0.280025
0.270549
0.254059
0.233995
0.215465
0.199492
0.185683
0.174069
0.164745
0.158743
0.663532
0.344536
0.220401
0.173762
0.176856
0.194241
0.214079
0.232111
0.243908
0.249757
0.248376
0.240298
0.226782
0.210537
0.194516
0.180471
0.168171
0.15761
0.148962
0.143271
0.66467
0.345114
0.22033
0.164217
0.157167
0.171738
0.19038
0.208144
0.220817
0.226492
0.225348
0.218316
0.20667
0.192092
0.17757
0.164735
0.15349
0.143749
0.135657
0.130229
0.665767
0.345663
0.220587
0.160333
0.141978
0.152216
0.169303
0.186502
0.199745
0.206706
0.206574
0.200421
0.189706
0.176351
0.162961
0.151142
0.140795
0.131779
0.124193
0.119011
0.666815
0.346236
0.22076
0.159336
0.131861
0.135457
0.15033
0.16687
0.180253
0.188163
0.189257
0.183843
0.174039
0.161802
0.14976
0.139027
0.129606
0.121314
0.11423
0.109298
0.667815
0.346837
0.220936
0.15923
0.126466
0.121303
0.133502
0.148745
0.162169
0.170306
0.171621
0.166845
0.158458
0.147915
0.137578
0.12813
0.119736
0.112209
0.105645
0.100971
0.668767
0.347448
0.221103
0.159161
0.124531
0.110703
0.1183
0.132179
0.144799
0.152847
0.154162
0.150181
0.143423
0.135048
0.126608
0.1186
0.111261
0.104513
0.0984684
0.0940538
0.669672
0.348029
0.221233
0.158888
0.123655
0.104139
0.104618
0.116668
0.128149
0.135508
0.137548
0.135254
0.130041
0.123816
0.117243
0.110704
0.10442
0.0984091
0.0928403
0.0886613
0.670463
0.348337
0.220886
0.15786
0.122013
0.099964
0.092273
0.100573
0.111008
0.118413
0.122194
0.122113
0.11925
0.115123
0.110245
0.104981
0.0995775
0.094155
0.0889521
0.0849501
0.670564
0.34756
0.219223
0.155376
0.118769
0.0956619
0.0816152
0.0821651
0.0930975
0.103889
0.110927
0.113495
0.112901
0.110296
0.106484
0.10198
0.097081
0.0919833
0.086975
0.0830586
0.657281
0.348072
0.285112
0.294385
0.31048
0.321007
0.338567
0.385712
0.6596
0.34289
0.250214
0.249301
0.267287
0.283807
0.30055
0.326806
0.365323
0.40018
0.407432
0.389101
0.355632
0.313501
0.280538
0.255288
0.23536
0.220386
0.208978
0.202044
0.661119
0.342914
0.230693
0.215634
0.230871
0.250469
0.269254
0.287973
0.308467
0.325773
0.327853
0.315438
0.292813
0.266013
0.242844
0.223539
0.207367
0.194324
0.184116
0.177718
0.662361
0.343798
0.222513
0.190709
0.201101
0.220437
0.240676
0.258084
0.271429
0.280413
0.27998
0.270528
0.254014
0.23394
0.215462
0.199494
0.185687
0.174074
0.164749
0.158747
0.663535
0.344534
0.220395
0.173747
0.176848
0.194238
0.214076
0.232109
0.243899
0.249738
0.248353
0.240305
0.226804
0.210529
0.194518
0.180472
0.168174
0.157613
0.148965
0.143273
0.664673
0.345113
0.220328
0.164207
0.157159
0.17173
0.190373
0.20814
0.220812
0.226483
0.225337
0.218312
0.206638
0.192087
0.177573
0.164736
0.153492
0.143751
0.135659
0.130231
0.66577
0.345662
0.220586
0.160328
0.14197
0.152214
0.169293
0.18649
0.19974
0.206702
0.20657
0.200415
0.189702
0.17635
0.162963
0.151142
0.140797
0.13178
0.124194
0.119012
0.666818
0.346236
0.22076
0.159334
0.13185
0.135448
0.15033
0.166868
0.18025
0.18816
0.189255
0.18384
0.174039
0.161801
0.149762
0.139028
0.129607
0.121315
0.114231
0.109299
0.667818
0.346836
0.220935
0.15923
0.126465
0.121303
0.133502
0.148743
0.162165
0.170302
0.171617
0.166841
0.158456
0.147914
0.137584
0.128136
0.119737
0.112209
0.105646
0.100972
0.66877
0.347447
0.221103
0.159161
0.124531
0.110701
0.118299
0.132177
0.144795
0.152843
0.154158
0.150176
0.143424
0.135046
0.126605
0.118599
0.111261
0.104513
0.0984686
0.0940541
0.669675
0.348028
0.221233
0.158888
0.123655
0.104139
0.104617
0.116666
0.128146
0.135501
0.137541
0.13525
0.13004
0.123813
0.117238
0.110702
0.104419
0.0984092
0.0928404
0.0886614
0.670466
0.348335
0.220886
0.15786
0.122013
0.0999637
0.0922719
0.100571
0.111003
0.118409
0.122191
0.122109
0.119247
0.115121
0.110241
0.104981
0.0995775
0.0941551
0.0889521
0.0849501
0.670567
0.347559
0.219222
0.155376
0.118768
0.0956614
0.0816142
0.0821622
0.093095
0.103888
0.110926
0.113493
0.1129
0.110296
0.106483
0.101979
0.0970808
0.0919833
0.086975
0.0830586
0.657286
0.348011
0.285046
0.294341
0.310452
0.320973
0.338533
0.385627
0.659604
0.342871
0.250167
0.249269
0.267266
0.283789
0.300539
0.32677
0.365204
0.399965
0.407136
0.388932
0.355478
0.313584
0.280602
0.255294
0.235364
0.220391
0.208982
0.202049
0.661122
0.34291
0.23066
0.215611
0.230854
0.250452
0.269241
0.287948
0.308405
0.32568
0.327745
0.315411
0.292766
0.265998
0.242845
0.223539
0.20737
0.194327
0.18412
0.177722
0.662364
0.343797
0.222496
0.19069
0.201088
0.220429
0.240672
0.258075
0.271403
0.28037
0.279931
0.270505
0.253972
0.233891
0.215456
0.199493
0.18569
0.174077
0.164752
0.15875
0.663538
0.344534
0.220389
0.173731
0.176838
0.194233
0.21407
0.232104
0.243888
0.249716
0.248328
0.240308
0.226816
0.210518
0.194518
0.180473
0.168176
0.157615
0.148966
0.143275
0.664676
0.345112
0.220327
0.164196
0.15715
0.171722
0.190364
0.208133
0.220805
0.226472
0.225325
0.218306
0.206611
0.19208
0.177574
0.164736
0.153493
0.143752
0.13566
0.130232
0.665773
0.34566
0.220586
0.160323
0.141961
0.152209
0.169282
0.186478
0.199734
0.206696
0.206564
0.200409
0.189697
0.176349
0.162965
0.151142
0.140798
0.131781
0.124195
0.119013
0.666821
0.346235
0.220761
0.159333
0.131839
0.135438
0.150328
0.166863
0.180245
0.188155
0.189251
0.183836
0.174037
0.161801
0.149764
0.139029
0.129607
0.121315
0.114232
0.109299
0.667821
0.346836
0.220934
0.159229
0.126463
0.121302
0.133501
0.14874
0.16216
0.170297
0.171613
0.166836
0.158455
0.147912
0.137589
0.128141
0.119737
0.11221
0.105646
0.100972
0.668773
0.347447
0.221102
0.159161
0.12453
0.1107
0.118298
0.132174
0.144791
0.152839
0.154153
0.15017
0.143424
0.135043
0.126602
0.118598
0.11126
0.104513
0.0984688
0.0940542
0.669678
0.348028
0.221233
0.158888
0.123655
0.104138
0.104616
0.116664
0.128142
0.135494
0.137534
0.135245
0.130038
0.12381
0.117233
0.110701
0.104419
0.0984093
0.0928405
0.0886615
0.670469
0.348336
0.220886
0.15786
0.122013
0.0999632
0.0922706
0.100568
0.110998
0.118405
0.122187
0.122105
0.119244
0.115119
0.110237
0.10498
0.0995775
0.0941551
0.0889521
0.0849501
0.67057
0.347559
0.219222
0.155376
0.118768
0.0956609
0.0816132
0.0821593
0.0930923
0.103887
0.110924
0.113491
0.112899
0.110295
0.106481
0.101979
0.0970807
0.0919833
0.086975
0.0830586
0.657292
0.347953
0.284978
0.294294
0.310421
0.320958
0.338499
0.385536
0.659608
0.342852
0.250118
0.249233
0.267242
0.283778
0.300527
0.32673
0.365086
0.399746
0.406835
0.388732
0.355293
0.313638
0.280654
0.255299
0.235366
0.220393
0.208985
0.202051
0.661124
0.342907
0.230629
0.215586
0.230834
0.250433
0.269226
0.287922
0.308342
0.325583
0.327631
0.315373
0.292714
0.265982
0.242845
0.223537
0.207371
0.194329
0.184121
0.177723
0.662366
0.343797
0.222481
0.19067
0.201072
0.220415
0.240665
0.258064
0.271374
0.280324
0.279879
0.270483
0.253932
0.233846
0.215449
0.199491
0.18569
0.174078
0.164753
0.158751
0.66354
0.344533
0.220385
0.173715
0.176826
0.194221
0.214063
0.232098
0.243875
0.249693
0.248302
0.240307
0.226823
0.210505
0.194517
0.180472
0.168177
0.157616
0.148967
0.143276
0.664678
0.345112
0.220326
0.164185
0.15714
0.171709
0.190354
0.208126
0.220798
0.226461
0.225311
0.218298
0.206587
0.192072
0.177573
0.164736
0.153494
0.143753
0.135661
0.130233
0.665775
0.345661
0.220586
0.160318
0.141951
0.152204
0.16927
0.186465
0.199728
0.206689
0.206557
0.200403
0.189691
0.176345
0.162964
0.151142
0.140798
0.131781
0.124195
0.119014
0.666824
0.346235
0.220762
0.159331
0.131828
0.135428
0.150324
0.166858
0.18024
0.18815
0.189247
0.183832
0.174036
0.161798
0.149763
0.139029
0.129607
0.121315
0.114232
0.1093
0.667824
0.346837
0.220934
0.159229
0.126462
0.121301
0.1335
0.148736
0.162155
0.170293
0.171609
0.166831
0.158453
0.147909
0.137592
0.128145
0.119737
0.11221
0.105646
0.100972
0.668776
0.347447
0.221102
0.159161
0.12453
0.110698
0.118296
0.132171
0.144787
0.152835
0.154149
0.150165
0.14342
0.135041
0.126601
0.118597
0.11126
0.104513
0.0984689
0.0940543
0.669681
0.348028
0.221233
0.158889
0.123655
0.104137
0.104614
0.116662
0.128139
0.135488
0.137528
0.13524
0.130036
0.123808
0.11723
0.110699
0.104419
0.0984093
0.0928405
0.0886615
0.670471
0.348336
0.220886
0.15786
0.122013
0.0999628
0.0922692
0.100566
0.110993
0.1184
0.122183
0.1221
0.119242
0.115117
0.110235
0.104979
0.0995774
0.0941551
0.0889522
0.0849501
0.670572
0.347559
0.219221
0.155375
0.118767
0.0956605
0.0816121
0.0821561
0.0930892
0.103885
0.110922
0.113489
0.112898
0.110294
0.10648
0.101978
0.0970808
0.0919833
0.086975
0.0830586
0.657299
0.347898
0.284908
0.294243
0.310387
0.32092
0.338462
0.385442
0.659611
0.342836
0.250069
0.249195
0.267216
0.283755
0.30051
0.326689
0.364968
0.399524
0.406534
0.388508
0.355085
0.313667
0.280696
0.255302
0.235366
0.220394
0.208985
0.202052
0.661127
0.342905
0.230597
0.215559
0.230812
0.250412
0.26921
0.287895
0.308278
0.325483
0.327512
0.315324
0.292655
0.265965
0.242844
0.223534
0.20737
0.194329
0.184122
0.177724
0.662368
0.343798
0.222466
0.190648
0.201055
0.220402
0.240657
0.25805
0.271344
0.280276
0.279826
0.27046
0.253894
0.233806
0.21544
0.199489
0.18569
0.174078
0.164754
0.158752
0.663542
0.344534
0.22038
0.173698
0.176813
0.194212
0.214054
0.23209
0.24386
0.24967
0.248275
0.240302
0.226824
0.210491
0.194513
0.18047
0.168177
0.157616
0.148968
0.143276
0.66468
0.345112
0.220326
0.164174
0.157128
0.171698
0.190344
0.208118
0.220789
0.226448
0.225297
0.218288
0.206566
0.192063
0.177572
0.164735
0.153494
0.143753
0.135661
0.130233
0.665778
0.345661
0.220586
0.160313
0.141941
0.152198
0.169258
0.186453
0.19972
0.206682
0.20655
0.200397
0.189684
0.176341
0.162963
0.151141
0.140798
0.131781
0.124195
0.119014
0.666826
0.346236
0.220763
0.15933
0.131818
0.135418
0.150319
0.166852
0.180234
0.188144
0.189242
0.183827
0.174033
0.161795
0.149762
0.13903
0.129607
0.121315
0.114232
0.109299
0.667826
0.346837
0.220934
0.159229
0.12646
0.121298
0.133498
0.148732
0.16215
0.170288
0.171604
0.166826
0.158451
0.147907
0.137593
0.128148
0.119738
0.11221
0.105646
0.100972
0.668778
0.347448
0.221102
0.159161
0.124529
0.110697
0.118295
0.132167
0.144782
0.15283
0.154144
0.150159
0.143417
0.135038
0.126599
0.118597
0.11126
0.104513
0.0984689
0.0940543
0.669683
0.348029
0.221233
0.158889
0.123655
0.104136
0.104612
0.116659
0.128135
0.135482
0.137521
0.135234
0.130034
0.123806
0.117228
0.110698
0.104419
0.0984092
0.0928405
0.0886615
0.670474
0.348337
0.220886
0.15786
0.122013
0.0999623
0.0922678
0.100564
0.110988
0.118395
0.122179
0.122096
0.11924
0.115116
0.110234
0.104978
0.0995773
0.0941551
0.0889521
0.0849501
0.670575
0.347559
0.21922
0.155375
0.118767
0.0956601
0.081611
0.082153
0.0930861
0.103883
0.11092
0.113486
0.112897
0.110294
0.106479
0.101978
0.0970809
0.0919833
0.086975
0.0830586
0.657306
0.347843
0.284837
0.294191
0.310352
0.320881
0.338422
0.385342
0.659615
0.34282
0.250019
0.249155
0.267189
0.283731
0.300493
0.326646
0.364852
0.399304
0.406239
0.388271
0.354858
0.313671
0.280729
0.255304
0.235364
0.220393
0.208985
0.202051
0.661129
0.342904
0.230565
0.21553
0.230788
0.250391
0.269194
0.287867
0.308213
0.325382
0.32739
0.315264
0.292591
0.265946
0.242843
0.223531
0.207369
0.194328
0.184121
0.177723
0.66237
0.343799
0.222451
0.190626
0.201036
0.220388
0.240646
0.258036
0.271312
0.280227
0.279771
0.270436
0.253856
0.233769
0.215431
0.199485
0.185689
0.174078
0.164753
0.158751
0.663544
0.344535
0.220376
0.173681
0.176799
0.194201
0.214045
0.232081
0.243844
0.249644
0.248246
0.240296
0.22682
0.210476
0.194509
0.180468
0.168177
0.157615
0.148967
0.143276
0.664682
0.345113
0.220326
0.164164
0.157117
0.171687
0.190333
0.208108
0.220779
0.226434
0.225281
0.218278
0.206548
0.192053
0.17757
0.164733
0.153493
0.143753
0.13566
0.130233
0.66578
0.345661
0.220587
0.160309
0.141931
0.15219
0.169245
0.18644
0.199712
0.206673
0.206542
0.200391
0.189676
0.176335
0.162961
0.15114
0.140797
0.131781
0.124195
0.119013
0.666829
0.346236
0.220764
0.159329
0.131807
0.135407
0.150313
0.166845
0.180228
0.188138
0.189237
0.183822
0.17403
0.161791
0.149761
0.13903
0.129607
0.121315
0.114232
0.109299
0.667829
0.346837
0.220935
0.159229
0.126459
0.121295
0.133495
0.148727
0.162145
0.170282
0.171599
0.16682
0.158448
0.147904
0.137594
0.128151
0.119738
0.11221
0.105646
0.100972
0.668781
0.347448
0.221102
0.159161
0.124529
0.110695
0.118292
0.132163
0.144777
0.152825
0.154139
0.150154
0.143413
0.135035
0.126598
0.118596
0.111259
0.104513
0.0984688
0.0940543
0.669685
0.34803
0.221233
0.158889
0.123656
0.104135
0.104611
0.116657
0.128131
0.135475
0.137514
0.135229
0.130032
0.123804
0.117226
0.110697
0.104418
0.0984091
0.0928404
0.0886614
0.670476
0.348338
0.220886
0.15786
0.122013
0.099962
0.0922662
0.100561
0.110983
0.11839
0.122174
0.122091
0.119238
0.115114
0.110232
0.104976
0.099577
0.0941551
0.0889521
0.0849501
0.670577
0.347559
0.219221
0.155375
0.118767
0.0956597
0.0816099
0.0821497
0.0930827
0.103881
0.110918
0.113484
0.112896
0.110293
0.106478
0.101977
0.0970808
0.0919833
0.0869749
0.0830585
0.871584
0.651285
0.525832
0.648071
0.42076
0.653327
0.368411
0.338607
0.353287
0.36101
0.365171
0.391331
0.657313
0.34779
0.284764
0.294137
0.310314
0.320842
0.338379
0.385235
0.659619
0.342806
0.249969
0.249113
0.267159
0.283705
0.300473
0.3266
0.364734
0.399083
0.405952
0.388025
0.354617
0.313655
0.280753
0.255305
0.235361
0.22039
0.208982
0.202049
0.661131
0.342903
0.230533
0.215499
0.230762
0.250369
0.269176
0.287838
0.308148
0.325279
0.327265
0.315196
0.29252
0.265924
0.242841
0.223527
0.207366
0.194326
0.18412
0.177722
0.662372
0.343801
0.222437
0.190603
0.201016
0.220371
0.240634
0.258019
0.271279
0.280177
0.279714
0.27041
0.253819
0.233734
0.215421
0.19948
0.185687
0.174076
0.164752
0.15875
0.663546
0.344538
0.220373
0.173664
0.176783
0.194189
0.214033
0.23207
0.243827
0.249618
0.248217
0.240286
0.226813
0.21046
0.194503
0.180465
0.168175
0.157614
0.148966
0.143275
0.664684
0.345115
0.220326
0.164153
0.157104
0.171674
0.190322
0.208098
0.220768
0.22642
0.225265
0.218268
0.20653
0.192043
0.177566
0.164731
0.153492
0.143752
0.13566
0.130232
0.665782
0.345662
0.220587
0.160304
0.141921
0.152182
0.169232
0.186427
0.199703
0.206665
0.206533
0.200385
0.189668
0.17633
0.162959
0.151139
0.140796
0.131781
0.124194
0.119013
0.666831
0.346237
0.220765
0.159328
0.131796
0.135396
0.150306
0.166837
0.180221
0.188131
0.189231
0.183816
0.174027
0.161788
0.14976
0.13903
0.129606
0.121314
0.114232
0.109299
0.667831
0.346838
0.220935
0.15923
0.126457
0.121292
0.133492
0.148722
0.162139
0.170277
0.171594
0.166815
0.158445
0.147901
0.137595
0.128153
0.119738
0.112209
0.105646
0.100972
0.668783
0.347448
0.221103
0.159162
0.124529
0.110692
0.11829
0.132159
0.144772
0.15282
0.154133
0.150148
0.14341
0.135032
0.126597
0.118596
0.111259
0.104512
0.0984686
0.0940541
0.669688
0.34803
0.221233
0.158889
0.123656
0.104134
0.104609
0.116653
0.128126
0.135468
0.137508
0.135224
0.130029
0.123802
0.117224
0.110695
0.104418
0.098409
0.0928403
0.0886614
0.670478
0.348338
0.220886
0.157861
0.122013
0.0999615
0.0922646
0.100558
0.110978
0.118384
0.122169
0.122087
0.119237
0.115113
0.11023
0.104975
0.0995767
0.094155
0.088952
0.08495
0.670579
0.347559
0.21922
0.155375
0.118767
0.0956592
0.0816087
0.0821466
0.0930794
0.103879
0.110915
0.113481
0.112894
0.110292
0.106477
0.101977
0.0970808
0.0919832
0.0869749
0.0830585
2.0112
2.52226
2.30688
0.871115
0.874978
0.861108
0.651128
0.525591
0.542681
0.648061
0.420577
0.419877
0.653337
0.368295
0.338494
0.353214
0.360948
0.365114
0.391173
0.657321
0.34774
0.284688
0.294079
0.310274
0.320821
0.338332
0.385119
0.659623
0.342792
0.249917
0.249068
0.267126
0.283687
0.30045
0.326551
0.364615
0.398865
0.405675
0.387774
0.354367
0.313618
0.280767
0.255303
0.235356
0.220385
0.208978
0.202044
0.661134
0.342903
0.230501
0.215466
0.230733
0.250344
0.269157
0.287807
0.308081
0.325172
0.327135
0.315119
0.292443
0.265898
0.242837
0.223521
0.207361
0.194322
0.184116
0.177718
0.662374
0.343804
0.222423
0.190578
0.200992
0.22035
0.240621
0.258001
0.271244
0.280124
0.279655
0.270382
0.253781
0.2337
0.215409
0.199474
0.185683
0.174073
0.164749
0.158747
0.663548
0.34454
0.22037
0.173645
0.176765
0.194171
0.214021
0.232058
0.243809
0.24959
0.248186
0.240272
0.226803
0.210443
0.194497
0.18046
0.168172
0.157612
0.148964
0.143273
0.664686
0.345117
0.220327
0.164142
0.15709
0.171658
0.190309
0.208087
0.220756
0.226404
0.225248
0.218256
0.206514
0.192032
0.177562
0.164728
0.15349
0.14375
0.135658
0.130231
0.665784
0.345665
0.220589
0.1603
0.14191
0.152172
0.169218
0.186414
0.199693
0.206655
0.206523
0.200378
0.18966
0.176323
0.162956
0.151137
0.140795
0.131779
0.124194
0.119012
0.666833
0.346238
0.220766
0.159327
0.131785
0.135385
0.150298
0.166829
0.180214
0.188124
0.189224
0.183811
0.174023
0.161783
0.149758
0.139029
0.129606
0.121314
0.114231
0.109298
0.667833
0.346838
0.220935
0.15923
0.126455
0.121288
0.133488
0.148716
0.162133
0.170271
0.171588
0.166809
0.158442
0.147897
0.137595
0.128154
0.119737
0.112209
0.105645
0.100971
0.668785
0.347449
0.221103
0.159162
0.124528
0.11069
0.118287
0.132155
0.144766
0.152815
0.154128
0.150142
0.143406
0.135029
0.126595
0.118596
0.111258
0.104512
0.0984683
0.0940539
0.66969
0.348031
0.221234
0.15889
0.123656
0.104133
0.104607
0.11665
0.128121
0.135462
0.137501
0.135218
0.130026
0.123799
0.117222
0.110694
0.104417
0.0984087
0.0928402
0.0886612
0.67048
0.348339
0.220886
0.157861
0.122013
0.0999612
0.092263
0.100556
0.110973
0.118379
0.122164
0.122082
0.119235
0.115111
0.110228
0.104974
0.0995764
0.0941549
0.088952
0.08495
0.670581
0.34756
0.21922
0.155375
0.118766
0.0956588
0.0816076
0.0821432
0.0930757
0.103877
0.110913
0.113478
0.112893
0.110291
0.106476
0.101976
0.0970806
0.0919831
0.0869748
0.0830585
2.01249
2.51862
2.30321
2.28005
0.870702
0.873877
0.86031
0.83188
0.650982
0.525348
0.542487
0.535754
0.648054
0.420398
0.419733
0.429684
0.653349
0.36818