/*--------------------------------*- C++ -*----------------------------------*\
  =========                 |
  \\      /  F ield         | OpenFOAM: The Open Source CFD Toolbox
   \\    /   O peration     | Website:  https://openfoam.org
    \\  /    A nd           | Version:  10
     \\/     M anipulation  |
\*---------------------------------------------------------------------------*/
FoamFile
{
    format      ascii;
    class       surfaceScalarField;
    location    "2000";
    object      phi;
}
// * * * * * * * * * * * * * * * * * * * * * * * * * * * * * * * * * * * * * //

dimensions      [0 3 -1 0 0 0 0];

internalField   nonuniform List<scalar> 
25067
(
37.1476
-73.1063
1994.08
36.5625
-120.46
1995.13
37.7603
-111.241
1967.96
38.103
-100.488
1931.27
39.5514
-96.6792
1883
46.058
-82.1331
1826.45
58.8438
-65.7401
1772.1
-73.225
1752.35
37.4602
-67.8188
2015.34
36.9005
-111.763
2018.31
38.1623
-103.65
2002.8
38.8399
-93.9063
1974.88
41.624
-90.4176
1931.99
52.5767
-82.8571
1879.39
58.7838
-76.8916
1845.14
59.2723
-78.8623
1813.36
51.076
-88.5769
1780.2
48.3916
-95.9999
1725.67
40.0395
-86.4337
1718.71
45.4545
-17.4095
1697.1
38.98
18.1908
1711.27
33.6275
1.81176
1656.41
37.2228
-6.15658
1645.91
37.5147
-8.11292
1706.03
37.3533
-6.99564
1695.28
37.2247
-5.59042
1689.33
37.1363
-4.47691
1689.04
-3.15234
1673.97
37.7146
-62.3105
2034.35
37.225
-102.628
2036.96
38.4802
-95.4338
2029
39.4065
-86.7354
2009.15
43.2478
-83.6616
1972.91
56.9241
-69.1447
1914.24
59.5153
-65.6294
1886.51
59.005
-74.8972
1855.45
51.5862
-82.8333
1830.78
49.0636
-90.314
1784.32
41.2148
-80.5459
1777.18
46.642
-15.4198
1752.82
40.3982
17.676
1761.13
39.1316
1.95861
1757.5
38.7967
-5.70071
1752.45
38.9575
-7.7023
1742.11
38.6258
-6.76878
1728.66
38.3484
-5.51763
1720.95
38.2031
-4.45049
1718.22
-3.15775
1703.41
37.9317
-56.6108
2051.29
37.5099
-93.1887
2053.43
38.7281
-86.7539
2048.78
39.7578
-79.1229
2036.97
43.7445
-76.5604
2007.07
56.6111
-63.7075
1956.53
58.6804
-61.5494
1936.8
58.201
-70.5709
1900.94
51.776
-77.2176
1876.02
49.4789
-83.6039
1833.51
42.3837
-73.9746
1825.4
47.5637
-13.5275
1800.1
42.0928
16.8831
1803.44
40.5382
2.1488
1795.87
40.2789
-5.10499
1787.05
40.2137
-7.1416
1773.9
39.7564
-6.40813
1758.31
39.4124
-5.32564
1748.63
39.1704
-4.34749
1743.89
-3.10761
1729.12
38.1352
-50.7262
2066.54
37.7676
-83.505
2068.49
38.9263
-77.7974
2064.75
39.9985
-71.1636
2059.3
43.7325
-69.1228
2035.99
55.3467
-57.8665
1994.63
57.5759
-55.8542
1979.13
56.2771
-65.4961
1945.95
51.48
-71.6256
1917.68
49.7061
-76.2247
1877.17
43.4937
-66.9278
1867.5
48.461
2.71639
1822.18
43.6706
28.9944
1823.88
41.8817
2.31892
1830.61
41.5611
-4.45034
1818.02
41.307
-6.44608
1802.25
40.8187
-5.90108
1784.81
40.3731
-4.9774
1773.29
40.0448
-4.10339
1766.66
-2.96977
1751.85
38.3163
-44.7333
2080.53
38.0115
-73.5833
2082.33
39.0894
-68.588
2078.83
40.136
-62.8839
2077.02
43.4094
-61.3878
2060.94
51.7386
-43.1463
2031.8
55.6251
-41.4757
2020.63
52.4521
-60.2335
1987.63
50.5699
-64.8047
1953.7
49.7518
-68.3105
1916.99
44.4929
-59.5163
1905.69
48.7947
-51.0474
1946.72
44.7935
-23.5043
1938.94
43.0837
2.40139
1862.43
42.6086
-3.80294
1846.29
42.3789
-5.71829
1827.7
41.7628
-5.31697
1808.69
41.2979
-4.55122
1795.32
40.83
-3.79896
1786.9
-2.77615
1772.03
38.4785
-38.5802
2093.38
38.2428
-63.471
2095.07
39.2291
-59.1967
2091.87
40.2304
-54.3609
2091.33
43.2319
-53.2012
2081.2
47.4842
-38.1829
2052.95
51.4804
-23.518
2044.2
49.1183
-39.5417
2024.26
49.703
-57.1757
1987.45
49.6821
-59.7451
1954.37
45.256
-51.7628
1941.45
44.0153
-44.152
1916.13
45.5915
-20.1338
1898.66
44.1991
2.35688
1891.84
43.3135
-3.10699
1872.32
43.2577
-4.86485
1850.27
42.5927
-4.65619
1830.01
42.0651
-4.03384
1814.85
41.5328
-3.38767
1804.63
-2.50222
1789.88
38.6245
-32.367
2105.43
38.4605
-53.2249
2106.89
39.4992
-36.2923
2104.16
40.4689
-21.1384
2103.4
43.1616
-16.239
2095.65
46.5109
-14.3928
2077.59
47.7131
-20.0068
2069
48.1791
-34.2018
2054.8
49.3994
-49.3655
2019.82
49.563
-50.8309
1990.56
45.8179
-43.7255
1975.62
45.0209
-37.1814
1949.11
46.2976
-16.8131
1929.98
45.0544
2.22698
1918.89
43.4901
-2.33082
1896.11
43.8837
-3.90035
1869.87
43.3112
-3.91408
1848.77
42.6718
-3.45354
1831.96
42.1511
-2.91173
1820
-2.1698
1805.41
38.7565
-26.0335
2116.7
38.6729
-42.7907
2117.93
39.245
-29.1735
2115.67
40.4693
-16.9646
2114.11
42.8647
-14.0565
2103.55
46.0999
-12.927
2097.23
47.3002
-16.1008
2091.7
48.1094
-27.6857
2080.21
49.0766
-39.3566
2049.55
49.3461
-40.5773
2024.12
46.442
-35.4179
2007.58
45.8553
-30.0222
1979.95
46.9398
-13.496
1958.36
45.7193
1.9265
1942.94
43.2702
1.14944
1892.36
44.4472
-2.27355
1865.21
43.9182
-3.14887
1864.96
43.241
-2.80562
1846.66
42.6797
-2.39607
1833.05
-1.81613
1818.58
38.8771
-19.6421
2127.34
38.8639
-32.2852
2128.38
39.4071
-22.0158
2126.55
40.7434
-12.7917
2124.76
43.6282
-10.4148
2119.06
45.5464
-9.72542
2121.06
46.5981
-12.3613
2112.8
47.6723
-21.0375
2101.58
48.5073
-29.9031
2075.75
49.0309
-30.8461
2053.54
46.9914
-26.8565
2035.7
46.6049
-22.7188
2006.97
47.4687
-10.1367
1982.55
46.3965
1.54961
1963.07
45.7499
0.903809
1937.68
44.9537
-1.70121
1910.12
44.3461
-2.38501
1878.55
43.7056
-2.14666
1858.78
43.1128
-1.84958
1843.57
-1.38735
1829.42
38.9872
-13.1634
2137.44
39.0382
-21.6313
2138.23
39.5282
-14.7403
2136.89
40.6387
-8.58292
2135.6
43.2081
-8.7917
2133.53
44.5293
-8.40106
2137.65
45.6613
-8.54616
2129.74
46.9442
-14.2273
2119.8
47.9521
-20.1346
2097.89
48.5557
-15.0685
2077.21
47.3625
-12.1618
2057.56
47.2799
-15.2631
2027.87
47.8912
-6.79715
2001.55
47.0201
1.08395
1978.87
46.267
0.648145
1951.37
45.3408
-1.12657
1921.2
44.7211
-1.59438
1889.17
44.0615
-1.42176
1868.04
43.4458
-1.24955
1851.55
-0.935201
1837.83
39.0795
-6.60762
2147.03
39.2078
-10.8569
2147.5
39.6329
-7.40605
2146.52
40.4789
-4.32376
2145.61
42.366
-4.51101
2142.68
43.441
-4.36593
2145.22
44.6469
-4.39051
2142.46
46.0776
-7.19294
2134.99
47.2376
-7.30419
2116.27
47.8516
-4.6476
2095.01
47.8519
-6.12099
2072.49
47.8971
-7.67184
2042.41
48.2108
-3.38201
2014.91
47.4529
0.587646
1989.87
46.6564
0.345134
1960.84
45.734
-0.557757
1928.68
45.0409
-0.797914
1896.59
44.3056
-0.701863
1874.49
43.6737
-0.633408
1856.85
-0.478402
1843.7
39.1512
2155.51
39.3496
2154.97
39.7115
2153.88
40.3714
2152.93
41.4582
2151.52
42.4545
2151.54
43.6284
2149.76
45.1627
2144.65
46.4373
2128.48
47.6692
2105.43
48.3011
2079.85
48.4383
2050.05
48.4277
2022.16
47.7654
1995.58
46.9815
1965.66
45.999
1932.28
45.1715
1900.59
44.4382
1877.91
43.7889
1859.4
1846.95
36.1849
-2.23447
1994
36.4472
-3.21961
1994.84
36.538
-0.854855
1967.79
36.3709
1.21245
1931.27
36.1934
3.51282
1883.08
40.1713
-6.76453
1821.61
42.0485
-7.09983
1771.04
12.5444
1757.7
36.5371
-2.26903
2015.25
36.7912
-3.21927
2018.06
37.0174
-0.943356
2002.66
37.1335
1.14745
1974.83
37.538
3.42462
1931.68
42.4266
2.45444
1865.28
42.0493
7.61343
1830.8
42.0682
16.6712
1809.22
43.9855
12.7855
1780.52
44.2087
5.52003
1725.68
41.2004
-16.6827
1719.81
34.9167
-46.8653
1700.85
11.902
-86.9474
1729.06
16.9232
-107.659
1705.53
34.7431
-58.1376
1686.81
37.3791
-6.57201
1703.48
37.252
-5.8144
1695.68
37.2313
-4.49261
1689.7
37.1972
-3.45946
1689.38
-2.22281
1674.29
36.8586
-2.26399
2034.24
37.1049
-3.1713
2036.66
37.4172
-1.04539
2028.79
37.7492
0.947869
2009.01
38.5497
3.0865
1972.45
43.3575
2.19245
1909.69
41.1257
6.00791
1890.35
43.1088
14.1098
1856.03
44.8005
11.1539
1830.72
45.1055
5.071
1784.47
42.5512
-15.0227
1778.08
36.7171
-43.5385
1755.33
16.6163
-82.0146
1776.3
15.5535
-101.164
1752.07
36.3125
-54.1515
1727.71
38.8803
-6.37809
1739.34
38.6417
-5.83385
1728.91
38.4736
-4.64263
1721.27
38.2063
-3.63131
1718.66
-2.39913
1703.69
37.1578
-2.19004
2051.11
37.3941
-3.06228
2053.08
37.7571
-1.17069
2048.54
38.2351
0.676586
2036.76
39.1647
2.66945
2006.56
44.0622
1.53715
1952.28
41.8383
4.6754
1940.36
43.9744
12.0456
1900.87
45.4389
9.60785
1876.1
45.803
4.53987
1833.68
43.6658
-13.4551
1825.97
38.8137
-39.9444
1801.36
27.5716
-36.4644
1769.13
19.336
-56.0738
1759.01
37.909
-50.1675
1764.49
40.1959
-6.01934
1771.26
39.8938
-5.64172
1758.42
39.54
-4.60958
1748.95
39.234
-3.66101
1744.23
-2.48285
1729.42
37.4385
-2.11175
2066.36
37.6601
-2.89434
2068.1
38.0465
-1.23312
2064.43
38.6254
0.406647
2058.99
39.6643
2.19391
2035.42
44.2849
0.859613
1990.69
42.6001
3.59605
1981.9
44.3084
10.0377
1946.25
45.8671
8.05883
1917.67
46.3394
4.01006
1877.23
44.7165
-11.9343
1867.61
38.3083
-76.1261
1864.77
38.7918
-73.1869
1860.12
23.182
-51.3866
1841.53
39.3642
-45.5138
1797.18
41.3463
-5.53488
1799.78
40.8957
-5.31246
1784.93
40.441
-4.44256
1773.57
40.1095
-3.6003
1766.93
-2.49873
1752.15
37.6888
-1.9463
2080.25
37.9075
-2.66554
2081.89
38.301
-1.23286
2078.43
38.9308
0.149227
2076.65
40.0052
1.68938
2060.37
43.2931
4.76494
2024.61
43.0447
7.26819
2017.2
44.0098
7.42573
1989.28
46.0469
5.94033
1953.79
46.7393
3.43801
1916.87
45.5312
-10.4331
1905.39
42.1839
-24.2711
1898.21
40.8722
-18.4741
1885.53
26.4153
-45.6867
1871.18
40.3431
-40.2612
1827.11
42.2872
-4.82015
1825.04
41.7768
-4.83834
1808.72
41.2425
-4.12869
1795.54
40.8949
-3.39442
1787.04
-2.4038
1772.28
37.9129
-1.76792
2093.1
38.1499
-2.38711
2094.55
38.5354
-1.17066
2091.43
39.1704
-0.0379019
2090.88
40.2515
1.22483
2080.58
41.9583
3.67753
2052.33
43.1854
5.83491
2044.41
43.8245
6.04156
2025
46.1412
4.94531
1986.12
47.0311
2.94061
1953.98
46.1118
-8.96765
1940.9
44.4791
-21.028
1914.52
42.2648
-16.0459
1898.45
29.0904
-39.3949
1898.72
39.9543
-34.0772
1855.28
42.903
-3.56242
1846.07
42.6048
-4.21788
1829.69
42.0082
-3.71242
1815.03
41.5981
-3.10024
1804.75
-2.23113
1790.11
38.129
-1.52646
2105.09
38.3701
-2.0454
2106.31
38.7576
-1.0245
2103.62
39.3951
-0.150995
2102.87
40.5845
0.880255
2094.81
41.9876
2.84676
2077.02
43.3951
4.69428
2068.74
44.2848
4.99697
2054.95
46.3222
4.11693
2018.61
47.2431
2.42728
1990.15
46.6411
-7.51953
1974.77
45.3396
-17.6339
1947.02
43.5013
-13.4315
1929.21
31.3742
-32.6211
1924.24
38.4553
-25.0412
1879.99
43.068
0.133986
1861.56
43.2578
-3.46202
1847.83
42.6768
-3.2211
1832.05
42.1538
-2.72837
1820.15
-1.98759
1805.55
38.332
-1.27816
2116.35
38.5688
-1.71308
2117.36
38.9715
-0.872363
2115.11
39.6461
-0.153298
2113.44
41.3303
-1.57284
2104.32
42.0889
-0.263147
2099.58
43.5467
3.57567
2091.36
44.8195
3.90714
2080.03
46.3853
3.28347
2048.81
47.3582
1.92784
2023.65
47.0719
-6.05928
2006.4
46.0315
-14.1922
1977.55
44.6467
-10.7893
1957.11
33.8543
-26.1081
1947.22
36.2526
-42.3357
1907.26
43.3023
-22.8569
1881.15
43.7974
-2.77486
1863.78
43.2451
-2.64995
1846.64
42.6819
-2.25703
1833.14
-1.64814
1818.65
38.5157
-0.989039
2126.95
38.7611
-1.30145
2127.72
39.1714
-0.698374
2125.96
39.8696
-0.174491
2124.09
42.0311
-1.18152
2116.51
42.1356
-0.333566
2121.02
43.5415
2.50829
2112.46
44.9638
2.87472
2101.19
46.3362
2.47273
2075.19
47.4246
1.44982
2052.93
47.4247
-4.56261
2034.2
46.7051
-10.6915
2004.19
45.6298
-8.14122
1980.97
36.885
-19.7085
1965.42
37.0456
-31.8097
1927
43.9355
-17.1047
1897.47
44.3525
-2.10066
1877.46
43.7088
-2.00548
1858.78
43.115
-1.72545
1843.63
-1.29506
1829.51
38.69
-0.678236
2137.04
38.9437
-0.901202
2137.58
39.351
-0.499842
2136.29
40.0085
-0.151765
2134.92
41.5843
0.442273
2130.33
42.0673
1.01446
2135.82
43.4304
1.52408
2129.37
44.9141
1.86431
2119.33
46.3136
1.67822
2097.28
47.4933
0.992859
2076.49
47.8008
-3.0384
2055.73
47.306
-7.1601
2024.83
46.5194
-5.44707
1999.65
40.0741
-13.1881
1978.79
39.8989
-21.3202
1941.06
44.7045
-11.4777
1910.77
44.7914
-1.41872
1888.4
44.0643
-1.37435
1868.14
43.4476
-1.18726
1851.63
-0.888564
1837.89
38.854
-0.363687
2146.63
39.1065
-0.475687
2146.82
39.5126
-0.256279
2145.87
40.1219
-0.0633844
2144.92
41.0332
0.179435
2142.03
41.9804
0.433581
2144.85
43.2651
0.698136
2142
44.7851
0.900525
2134.44
46.2994
0.858078
2115.58
47.5283
0.523423
2094.25
48.0078
-1.51687
2070.49
47.8453
-3.57618
2038.99
47.3841
-2.72822
2012.66
43.1955
-6.65045
1987.52
42.871
-10.7338
1950.58
45.353
-5.77298
1920.49
45.0456
-0.701867
1896.18
44.3079
-0.686064
1874.54
43.675
-0.602189
1856.9
-0.447436
1843.75
39.0062
2155.07
39.2408
2154.26
39.6379
2153.22
40.2173
2152.29
41.0026
2150.91
41.9187
2151.06
43.1115
2149.27
44.6384
2144.02
46.2296
2127.75
47.5061
2104.68
48.169
2077.67
48.3131
2046.33
48.153
2019.59
46.2977
1990.79
45.6761
1955.55
45.8124
1926.37
45.1759
1900.53
44.4404
1877.96
43.7902
1859.45
1847
36.1536
3.15404
1994.25
36.3815
5.17587
1995.11
36.4283
7.02574
1968.09
36.2461
8.98804
1931.63
36.0036
11.5901
1883.5
36.1466
15.4564
1822.01
37.5812
20.9124
1771.4
25.0012
1758.07
36.4974
2.78092
2015.54
36.7254
4.65582
2018.35
36.913
6.49606
2003
36.9951
8.50028
1975.24
37.0992
11.0369
1932.13
37.5724
14.6814
1865.58
39.1274
18.8817
1831.28
41.5671
22.0887
1809.69
43.5849
19.543
1780.71
44.1957
13.2188
1725.65
43.5767
4.99662
1719.58
42.0919
0.849212
1700.92
36.8895
-5.75292
1732.66
35.7853
-4.23078
1705.29
37.7441
-6.29237
1684.15
37.5795
-6.72671
1703.58
37.3849
-5.60453
1696.05
37.2403
-4.225
1690.13
37.1443
-3.16287
1689.73
-1.92779
1674.51
36.8201
2.39213
2034.56
37.0439
4.08204
2037.01
37.3208
5.81408
2029.19
37.6102
7.79415
2009.43
37.9874
10.2288
1972.88
38.778
13.51
1910.08
40.2686
16.7629
1890.98
42.5069
19.4581
1856.43
44.3636
17.4759
1830.93
45.1051
12.3702
1784.57
44.6865
5.46322
1778.03
43.5491
1.70423
1755.61
38.9544
-5.04016
1780.18
37.4371
-3.72541
1753.08
39.3422
-5.71932
1725.23
39.0259
-6.4918
1739.43
38.6575
-5.60241
1729.28
38.3645
-4.38427
1721.72
38.2123
-3.35875
1719.01
-2.11344
1703.98
37.1094
1.99735
2051.45
37.3231
3.51467
2053.44
37.6678
5.0828
2048.93
38.1122
6.92468
2037.19
38.6919
9.19493
2007.02
39.6874
12.1217
1952.68
41.1572
14.7735
1940.88
43.2737
16.9996
1901.21
44.9843
15.479
1876.38
45.7816
11.3305
1833.92
45.516
5.53675
1826.16
44.7933
2.17007
1801.61
39.7167
-3.16753
1772.34
39.058
-5.82544
1761.77
40.7436
-5.25231
1762.34
40.3389
-6.11706
1771.29
39.7866
-5.43499
1758.81
39.4283
-4.37609
1749.3
39.18
-3.44311
1744.56
-2.25135
1729.72
37.3829
1.67342
2066.63
37.5883
2.98962
2068.42
37.9633
4.36069
2064.78
38.5121
5.99814
2059.37
39.2611
8.07553
2035.79
40.4122
10.6285
1991.03
41.8765
12.8653
1982.34
43.8656
14.6835
1946.58
45.4628
13.5851
1917.97
46.3115
10.2048
1877.5
46.2337
5.38806
1867.83
46.703
0.903225
1865.57
43.8602
-2.02999
1861.82
40.5501
-5.11739
1844.13
42.0041
-4.69537
1795.17
41.4867
-5.6395
1799.82
40.8467
-5.13318
1785.27
40.449
-4.23462
1773.83
40.1151
-3.37881
1767.2
-2.27873
1752.47
37.6358
1.33278
2080.54
37.8506
2.51733
2082.14
38.2257
3.7224
2078.7
38.8304
5.10142
2076.94
39.6904
6.90667
2060.68
40.9435
9.07417
2024.91
42.4073
11.0238
2017.58
44.2192
12.4449
1989.71
45.8179
11.7333
1954.04
46.7253
9.05487
1917.12
46.8125
5.04046
1905.66
47.052
0.658141
1898.22
44.9892
-0.34134
1885.91
41.8828
-4.35176
1873.52
43.0302
-4.07896
1825.35
42.4889
-5.06905
1825.01
41.7866
-4.71792
1809.01
41.3114
-3.97871
1795.76
40.9001
-3.24525
1787.32
-2.2558
1772.6
37.8704
1.08046
2093.29
38.096
2.0922
2094.75
38.4679
3.12257
2091.65
39.083
4.22996
2091.14
39.9965
5.72614
2080.85
41.2563
7.53639
2052.61
42.7452
9.22656
2044.72
44.4236
10.4235
2025.35
46.0475
9.97325
1986.26
47.0297
7.81866
1954.23
47.2639
4.56721
1941.14
46.7971
0.866883
1914.78
45.8653
-0.0635889
1899.11
43.0087
-3.53805
1900.76
43.6349
-3.25537
1853.83
43.3582
-4.32568
1845.6
42.6131
-4.22026
1829.94
42.0138
-3.60621
1815.26
41.5406
-2.98003
1804.95
-2.12641
1790.31
38.0912
0.846452
2105.26
38.3208
1.66225
2106.51
38.7004
2.52024
2103.85
39.2982
3.43073
2103.08
40.2118
4.62193
2095
41.4811
6.07423
2077.22
42.9797
7.52912
2068.93
44.6109
8.53731
2055.21
46.1944
8.25647
2018.74
47.2367
6.57318
1990.36
47.6733
3.97043
1974.93
47.2939
0.915858
1947.35
46.4906
0.125289
1929.82
43.8809
-2.66409
1925.98
43.7395
-2.0073
1878.88
43.9726
-3.36559
1860.37
43.3279
-3.59054
1847.84
42.6816
-3.12947
1832.22
42.1573
-2.62196
1820.31
-1.89672
1805.69
38.2997
0.647392
2116.47
38.5319
1.30061
2117.49
38.9207
1.96419
2115.28
39.4985
2.67413
2113.62
40.3554
3.62932
2104.45
41.6256
4.60909
2099.77
43.1304
5.84643
2091.54
44.7461
6.74566
2080.21
46.2477
6.58465
2048.98
47.3524
5.28605
2023.83
47.9173
3.26785
2006.54
47.6796
0.867412
1977.84
47.066
0.213178
1957.63
44.8024
-2.00199
1948.82
44.2388
-1.271
1907.09
44.4726
-2.52629
1880.08
43.9312
-2.93558
1863.67
43.2487
-2.58845
1846.78
42.6843
-2.19587
1833.28
-1.61791
1818.79
38.4965
0.448021
2127.07
38.7231
0.937431
2127.86
39.1256
1.45456
2126.07
39.6997
1.99321
2124.19
40.5502
2.66141
2116.63
41.7305
3.26418
2121.19
43.2037
4.22521
2112.61
44.7934
4.99959
2101.34
46.267
4.95758
2075.34
47.413
4.00479
2053.06
48.0746
2.50928
2034.3
47.9653
0.736321
2004.43
47.5946
0.252975
1981.3
45.6691
-1.43004
1966.77
44.9704
-0.894126
1927.32
45.0468
-1.88042
1896.75
44.4223
-2.24674
1877.39
43.7114
-2.00513
1858.91
43.1172
-1.71078
1843.74
-1.26453
1829.6
38.6776
0.28217
2137.12
38.9051
0.627277
2137.66
39.3168
0.977354
2136.35
39.8928
1.32618
2135.01
40.7237
1.72633
2130.43
41.7758
2.07682
2135.95
43.1884
2.70369
2129.47
44.775
3.30532
2119.44
46.2714
3.33844
2097.41
47.4551
2.69974
2076.61
48.1782
1.69737
2055.82
48.2347
0.523646
2024.99
48.0171
0.202647
1999.91
46.4123
-0.944539
1979.91
45.6126
-0.592189
1941.56
45.4943
-1.2564
1910.27
44.7954
-1.51696
1888.37
44.067
-1.34245
1868.2
43.4491
-1.15629
1851.69
-0.873636
1837.97
38.848
0.153717
2146.68
39.0833
0.31737
2146.89
39.4893
0.484459
2145.96
40.065
0.641352
2145.02
40.8416
0.83355
2142.15
41.8123
1.01239
2144.94
43.1152
1.28934
2142.11
44.6859
1.62487
2134.55
46.2414
1.69397
2115.67
47.4761
1.38062
2094.34
48.2467
0.871662
2070.54
48.4309
0.26886
2039.06
48.2678
0.108548
2012.91
47.042
-0.4571
1988.26
46.1916
-0.286912
1951.12
45.7513
-0.61326
1920.29
45.0487
-0.76736
1896.13
44.3102
-0.685899
1874.62
43.6762
-0.586311
1856.96
-0.432373
1843.79
39
2155.15
39.2249
2154.35
39.6248
2153.31
40.1923
2152.36
40.9511
2150.98
41.8692
2151.16
43.0647
2149.36
44.5895
2144.12
46.2013
2127.83
47.4761
2104.79
48.2655
2077.75
48.4793
2046.38
48.4143
2019.76
47.4853
1991.26
46.7114
1956.04
45.9491
1926.52
45.1787
1900.53
44.4422
1878.01
43.7917
1859.51
1847.06
36.1718
2.92671
1994.37
36.4051
4.91233
1995.25
36.4767
6.70192
1968.26
36.3246
8.55844
1931.83
36.1375
11.0397
1883.68
36.295
14.7431
1822.12
37.7322
19.9853
1771.37
23.9225
1757.82
36.52
2.57947
2015.79
36.7447
4.41118
2018.62
36.9517
6.19783
2003.3
37.054
8.15742
1975.54
37.1783
10.6205
1932.42
37.5724
14.0824
1865.85
39.2097
18.2067
1831.42
41.6801
21.4539
1809.69
43.6618
19.0025
1780.57
44.2763
12.7797
1725.38
43.6211
4.72327
1719.27
42.3268
0.260875
1700.7
40.3503
-8.40915
1732.67
38.7148
-8.23999
1705.4
38.1016
-8.45011
1683.98
37.6178
-7.1986
1703.76
37.3805
-5.94891
1696.25
37.2993
-4.52487
1690.31
37.1456
-3.43558
1690
-2.14131
1674.64
36.8374
2.24189
2034.82
37.0573
3.88685
2037.32
37.3507
5.59417
2029.51
37.6546
7.52325
2009.76
38.0355
9.91882
1973.2
38.7217
13.1046
1910.37
40.3495
16.328
1891.23
42.5794
19.0529
1856.6
44.407
17.0878
1831.02
45.1701
12.0153
1784.58
44.6761
5.22572
1778.02
43.7277
1.28921
1755.53
41.9988
-6.94148
1780.44
40.4638
-6.94875
1753.32
39.7215
-7.64348
1725.16
39.1242
-6.81592
1739.64
38.7137
-5.81115
1729.55
38.4264
-4.57405
1722.06
38.2154
-3.51881
1719.3
-2.24384
1704.19
37.1266
1.90229
2051.73
37.3359
3.37551
2053.74
37.6922
4.91601
2049.25
38.146
6.73852
2037.52
38.7311
9.00352
2007.35
39.663
11.8559
1952.99
41.2277
14.4638
1941.18
43.3093
16.7333
1901.45
45.0118
15.2211
1876.55
45.8398
11.0661
1834.04
45.5563
5.39586
1826.27
44.8534
1.94859
1801.66
41.4675
-3.93963
1772.72
41.9831
-7.86584
1762.17
41.0808
-6.84869
1762.45
40.442
-6.3612
1771.47
39.8441
-5.57592
1759.17
39.4307
-4.51055
1749.65
39.1839
-3.53231
1744.82
-2.32499
1729.97
37.3986
1.5829
2066.89
37.6074
2.89143
2068.7
37.9818
4.2519
2065.06
38.5381
5.86646
2059.68
39.2769
7.92438
2036.13
40.3855
10.4386
1991.34
41.9135
12.6704
1982.61
43.8932
14.4915
1946.84
45.4849
13.4049
1918.19
46.3553
10.0271
1877.67
46.2623
5.28139
1868.04
46.8448
1.21622
1865.72
44.73
-2.04109
1862.04
43.2213
-6.74923
1844.52
42.2921
-6.06917
1795.32
41.5954
-5.84474
1800
40.8445
-5.24755
1785.69
40.3904
-4.3416
1774.12
40.058
-3.48448
1767.49
-2.35322
1752.72
37.65
1.30071
2080.76
37.8607
2.44365
2082.38
38.2394
3.60385
2078.97
38.8492
4.9742
2077.22
39.7039
6.77768
2060.97
40.9211
8.92604
2025.2
42.4245
10.8734
2017.87
44.2959
12.3627
1989.96
45.8399
11.6387
1954.26
46.7536
8.87625
1917.35
46.8303
4.97904
1905.88
47.241
0.681266
1898.34
45.6213
-0.62438
1886.11
44.2214
-5.72747
1873.9
43.3271
-5.28906
1825.46
42.6027
-5.24736
1825.14
41.7845
-4.8028
1809.38
41.252
-4.02736
1795.98
40.8419
-3.27668
1787.52
-2.28658
1772.81
37.8836
1.01825
2093.51
38.0967
2.00801
2094.97
38.48
3.0115
2091.86
39.0972
4.14485
2091.35
40.0152
5.63655
2081.07
41.2604
7.44572
2052.84
42.7542
9.15205
2044.95
44.5413
10.3324
2025.59
46.0758
9.86727
1986.5
47.054
7.69435
1954.44
47.3409
4.52239
1941.31
46.9304
0.881005
1914.99
46.3822
-0.27971
1899.31
45.064
-4.76749
1901.12
44.1929
-4.49374
1853.9
43.4125
-4.58461
1845.72
42.612
-4.25975
1830.2
42.016
-3.65544
1815.48
41.5431
-3.01129
1805.16
-2.1274
1790.49
38.0954
0.789032
2105.42
38.3276
1.61887
2106.67
38.7098
2.45181
2104.03
39.3093
3.35316
2103.27
40.2137
4.53756
2095.19
41.4906
5.96942
2077.42
42.9878
7.44057
2069.15
44.687
8.45135
2055.39
46.2142
8.1738
2018.91
47.2509
6.48978
1990.53
47.6797
3.95727
1975.07
47.4284
0.972414
1947.51
47.0168
-0.0373183
1929.99
45.8333
-3.82629
1926.22
44.752
-3.54658
1879.02
44.0941
-3.99653
1860.44
43.3265
-3.64475
1847.99
42.6825
-3.14785
1832.36
42.1594
-2.6386
1820.46
-1.91266
1805.86
38.2954
0.594353
2116.6
38.5364
1.26264
2117.6
38.9285
1.93734
2115.4
39.5046
2.63958
2113.76
40.3338
3.55117
2104.61
41.627
4.52729
2099.92
43.1377
5.7814
2091.69
44.7735
6.66377
2080.36
46.2532
6.50775
2049.17
47.3652
5.22719
2023.98
47.9217
3.26717
2006.67
47.8152
0.927967
1977.99
47.5335
0.115147
1957.76
46.453
-2.99314
1949.06
45.4688
-2.79667
1907.32
44.7272
-3.2702
1880.09
43.9304
-3.00428
1863.82
43.313
-2.62165
1846.88
42.6859
-2.21255
1833.48
-1.61822
1818.91
38.4842
0.434953
2127.16
38.7337
0.940351
2127.93
39.132
1.43434
2126.17
39.7029
1.9487
2124.31
40.5272
2.62781
2116.72
41.7308
3.20852
2121.3
43.2109
4.16871
2112.74
44.806
4.96092
2101.45
46.2715
4.92187
2075.46
47.4242
3.95318
2053.19
48.0763
2.50297
2034.41
48.1019
0.778779
2004.56
47.9327
0.149629
1981.44
46.8691
-2.19955
1967.04
46.0876
-2.08107
1927.38
45.239
-2.48185
1896.81
44.4208
-2.28194
1877.49
43.7758
-1.99143
1858.92
43.1179
-1.71133
1843.89
-1.26479
1829.69
38.6717
0.291793
2137.19
38.922
0.616878
2137.73
39.3203
0.927664
2136.46
39.8951
1.2905
2135.1
40.722
1.70306
2130.53
41.7824
2.05057
2136.05
43.2025
2.65819
2129.56
44.7803
3.2783
2119.54
46.283
3.33038
2097.5
47.4655
2.65828
2076.72
48.1083
1.68573
2055.99
48.3025
0.54607
2025.03
48.2209
0.142985
2000
47.2195
-1.41959
1980.13
46.541
-1.38459
1941.54
45.6227
-1.6607
1910.36
44.7942
-1.53484
1888.45
44.0666
-1.34367
1868.28
43.4492
-1.15675
1851.76
-0.85871
1838.03
38.8496
0.112573
2146.77
39.0923
0.275553
2146.99
39.4911
0.440821
2146.05
40.0674
0.631591
2145.11
40.8531
0.839426
2142.23
41.8255
0.998248
2145.02
43.1295
1.27453
2142.19
44.6989
1.62954
2134.63
46.2599
1.69833
2115.74
47.4921
1.34953
2094.41
48.175
0.855846
2070.69
48.4289
0.288027
2039.07
48.4041
0.077944
2013
47.5162
-0.703109
1988.43
46.7913
-0.676166
1951.14
45.8802
-0.816052
1920.35
45.048
-0.768752
1896.2
44.3099
-0.670328
1874.69
43.6767
-0.602564
1857.04
-0.447684
1843.87
39.0012
2155.2
39.2331
2154.4
39.6249
2153.36
40.1946
2152.42
40.9543
2151.06
41.8743
2151.23
43.0639
2149.45
44.6107
2144.2
46.2125
2127.93
47.485
2104.86
48.2645
2077.83
48.4767
2046.46
48.4816
2019.84
47.6908
1991.35
46.9126
1956.14
46.0128
1926.6
45.1775
1900.6
44.442
1878.07
43.7914
1859.56
1847.11
36.1992
2.45818
1994.43
36.444
4.39224
1995.33
36.5402
6.12157
1968.32
36.4195
7.92961
1931.88
36.2447
10.3089
1883.69
36.4257
13.8874
1822.04
37.8634
19.0753
1771.18
22.9912
1757.46
36.5365
2.22639
2015.9
36.7856
4.00685
2018.76
37.0084
5.746
2003.45
37.133
7.65647
1975.68
37.265
10.0638
1932.53
37.6688
13.4387
1865.89
39.3204
17.4772
1831.37
41.7598
20.6799
1809.56
43.7118
18.2794
1780.36
44.2913
12.1396
1725.11
43.5306
4.17135
1719.04
42.371
-0.277957
1700.37
40.4378
-9.079
1732.56
38.93
-9.06361
1705.23
37.9614
-9.16937
1684.03
37.6009
-7.79507
1703.66
37.3125
-6.49897
1696.35
37.1782
-5.0576
1690.43
37.2588
-3.91019
1689.94
-2.56793
1674.81
36.8486
1.97109
2034.99
37.0857
3.58101
2037.5
37.3978
5.22088
2029.72
37.7171
7.11703
2009.98
38.1011
9.45642
1973.43
38.8018
12.5611
1910.54
40.4311
15.7343
1891.34
42.6378
18.446
1856.62
44.4455
16.5318
1830.96
45.194
11.5101
1784.46
44.6691
4.75652
1777.96
43.7128
0.790332
1755.42
42.22
-7.54253
1780.4
40.8069
-7.65474
1753.33
39.7055
-8.24442
1725.34
39.0512
-7.3056
1739.81
38.5881
-6.25699
1729.77
38.4239
-4.97063
1722.13
38.2735
-3.88448
1719.43
-2.5763
1704.35
37.139
1.68235
2051.95
37.3651
3.11983
2053.97
37.7295
4.62543
2049.48
38.1943
6.41339
2037.76
38.788
8.6225
2007.59
39.7234
11.4313
1953.19
41.2765
14.0258
1941.33
43.3511
16.2729
1901.54
45.0486
14.7765
1876.61
45.864
10.6847
1834.05
45.6219
5.01758
1826.25
44.8433
1.52335
1801.7
41.626
-4.3635
1772.76
42.2135
-8.38865
1762.32
41.1942
-7.31403
1762.53
40.3103
-6.72093
1771.77
39.8396
-5.91146
1759.29
39.4901
-4.80996
1749.84
39.1843
-3.82898
1745.07
-2.58894
1730.14
37.4108
1.39908
2067.1
37.6289
2.70617
2068.89
38.0103
4.03047
2065.28
38.5742
5.62725
2059.91
39.3325
7.66282
2036.34
40.4243
10.1354
1991.55
41.9413
12.3252
1982.79
43.9379
14.1418
1946.97
45.5178
13.0677
1918.32
46.3836
9.70036
1877.79
46.3338
4.98076
1868.13
46.8406
0.901351
1865.83
44.7168
-2.36819
1862.17
43.3326
-7.162
1844.68
42.3482
-6.42563
1795.42
41.4645
-6.07003
1800.23
40.9639
-5.46764
1785.75
40.3901
-4.55536
1774.43
40.059
-3.68005
1767.67
-2.54619
1752.9
37.6616
1.15455
2080.93
37.8747
2.29539
2082.58
38.2608
3.45491
2079.15
38.8767
4.8067
2077.43
39.7433
6.58925
2061.18
40.9586
8.71398
2025.41
42.4523
10.6382
2018.07
44.3281
12.0907
1990.14
45.8604
11.3749
1954.42
46.7832
8.65094
1917.48
46.9025
4.74593
1906
47.2392
0.419704
1898.49
45.6113
-0.889396
1886.26
44.3369
-6.06737
1874.08
43.3221
-5.5925
1825.64
42.4723
-5.42793
1825.34
41.844
-4.97954
1809.53
41.2512
-4.21249
1796.23
40.8424
-3.44416
1787.7
-2.42192
1772.97
37.8948
0.945684
2093.64
38.1168
1.93378
2095.11
38.4963
2.90084
2092.04
39.1173
3.99923
2091.54
40.0379
5.48776
2081.25
41.2891
7.27612
2053.03
42.7805
8.96054
2045.13
44.553
10.1544
2025.75
46.0885
9.71165
1986.62
47.0687
7.54017
1954.57
47.3482
4.34317
1941.43
46.8655
0.692068
1915.2
46.3745
-0.461407
1899.37
45.1841
-5.01166
1901.26
44.1879
-4.73864
1854.04
43.3447
-4.75098
1845.88
42.609
-4.39087
1830.34
42.0155
-3.73562
1815.6
41.5434
-3.10375
1805.29
-2.23383
1790.63
38.1136
0.737492
2105.55
38.3395
1.56662
2106.81
38.7218
2.398
2104.15
39.3232
3.26433
2103.4
40.2343
4.42936
2095.34
41.5109
5.85865
2077.56
43.0064
7.32691
2069.29
44.6901
8.33526
2055.53
46.2261
8.04193
2019.04
47.2639
6.35909
1990.67
47.6854
3.81877
1975.17
47.3624
0.827758
1947.7
47.012
-0.176129
1930.06
45.8917
-4.04769
1926.38
44.8114
-3.79157
1879.15
44.0895
-4.14995
1860.56
43.3876
-3.76101
1848.07
42.6815
-3.24374
1832.57
42.1597
-2.71674
1820.6
-1.97387
1805.98
38.3126
0.564552
2116.69
38.5406
1.21368
2117.73
38.9365
1.87003
2115.53
39.5144
2.5719
2113.87
40.3531
3.48263
2104.72
41.6389
4.43928
2100.06
43.1558
5.67494
2091.82
44.7764
6.59154
2080.48
46.2711
6.4528
2049.27
47.3773
5.13789
2024.1
47.9261
3.17172
2006.77
47.816
0.828398
1978.1
47.5298
-0.0136093
1957.88
46.5145
-3.12827
1949.16
45.5947
-2.94359
1907.39
44.724
-3.37456
1880.19
43.9924
-3.05726
1863.85
43.2486
-2.65529
1847.03
42.6855
-2.24449
1833.57
-1.64918
1819
38.5013
0.390427
2127.26
38.7294
0.877524
2128.04
39.1374
1.38841
2126.25
39.7112
1.92044
2124.39
40.5384
2.56314
2116.82
41.7341
3.16103
2121.38
43.2211
4.12121
2112.81
44.8084
4.89587
2101.56
46.2814
4.87431
2075.56
47.4281
3.88816
2053.29
48.079
2.43416
2034.5
48.1024
0.723668
2004.64
47.9299
0.0965491
1981.5
47.0001
-2.27961
1967.12
46.1499
-2.18934
1927.48
45.2355
-2.53701
1896.89
44.4181
-2.31801
1877.57
43.7108
-2.04115
1859.02
43.1169
-1.72734
1843.97
-1.28086
1829.77
38.6808
0.250564
2137.25
38.918
0.556946
2137.82
39.3253
0.903916
2136.54
39.9024
1.26604
2135.18
40.7331
1.65966
2130.6
41.7854
2.00734
2136.15
43.1975
2.61576
2129.66
44.7897
3.2186
2119.63
46.2781
3.28858
2097.59
47.4604
2.65217
2076.78
48.1803
1.6762
2056.03
48.3028
0.533811
2025.1
48.2191
0.0978144
2000.08
47.3519
-1.49462
1980.22
46.5382
-1.44072
1941.6
45.6196
-1.68124
1910.43
44.792
-1.55406
1888.51
44.0649
-1.37683
1868.35
43.4484
-1.18854
1851.83
-0.889908
1838.11
38.8514
0.129165
2146.81
39.0872
0.309843
2147
39.4956
0.456424
2146.09
40.0729
0.611146
2145.18
40.8569
0.800261
2142.3
41.8206
0.977843
2145.09
43.131
1.27248
2142.22
44.7007
1.5911
2134.68
46.2471
1.65999
2115.82
47.487
1.32874
2094.5
48.2469
0.83432
2070.77
48.4288
0.282263
2039.14
48.4028
0.0728607
2013.05
47.5822
-0.724133
1988.48
46.7889
-0.729567
1951.22
45.878
-0.867233
1920.45
45.0454
-0.785914
1896.26
44.3084
-0.687376
1874.73
43.6757
-0.60286
1857.09
-0.447798
1843.92
38.9954
2155.26
39.228
2154.47
39.6283
2153.41
40.1983
2152.46
40.9581
2151.1
41.8778
2151.29
43.0808
2149.52
44.5979
2144.28
46.1996
2127.98
47.4789
2104.91
48.2651
2077.88
48.4764
2046.53
48.4806
2019.9
47.6895
1991.41
46.9102
1956.19
46.0101
1926.63
45.1755
1900.65
44.4402
1878.12
43.7901
1859.61
1847.15
36.2015
2.03784
1994.42
36.4689
3.93573
1995.32
36.5898
5.59717
1968.29
36.4852
7.33863
1931.85
36.3303
9.67259
1883.64
36.502
13.2214
1821.95
37.9284
18.4374
1770.97
22.3938
1757.17
36.5461
1.84495
2015.97
36.8042
3.60717
2018.83
37.0535
5.29511
2003.51
37.1931
7.15331
1975.73
37.3392
9.49674
1932.56
37.7395
12.8417
1865.87
39.3778
16.8868
1831.28
41.8085
20.1228
1809.4
43.723
17.7724
1780.17
44.2907
11.6988
1724.89
43.5619
3.76667
1718.82
42.2934
-0.68999
1700.17
40.4196
-9.52731
1732.42
38.861