/*--------------------------------*- C++ -*----------------------------------*\
  =========                 |
  \\      /  F ield         | OpenFOAM: The Open Source CFD Toolbox
   \\    /   O peration     | Website:  https://openfoam.org
    \\  /    A nd           | Version:  10
     \\/     M anipulation  |
\*---------------------------------------------------------------------------*/
FoamFile
{
    format      ascii;
    class       volVectorField;
    location    "2000";
    object      U;
}
// * * * * * * * * * * * * * * * * * * * * * * * * * * * * * * * * * * * * * //

dimensions      [0 1 -1 0 0 0 0];

internalField   nonuniform List<vector> 
8810
(
(0.403741 0.00587752 23.1026)
(0.407279 0.0148976 23.0672)
(0.410068 0.0224702 22.7891)
(0.409872 0.0298062 22.3299)
(0.407361 0.0405132 21.7699)
(0.405278 0.0578611 21.1992)
(0.409533 0.0860234 20.6551)
(0.432353 0.110724 20.1334)
(0.408075 0.00491819 23.3503)
(0.410711 0.013152 23.3391)
(0.414124 0.020967 23.1955)
(0.41618 0.0292365 22.8464)
(0.417044 0.0401177 22.3717)
(0.418691 0.055588 21.8268)
(0.426556 0.0788151 21.2863)
(0.450102 0.0978377 20.7892)
(0.481824 0.0870741 20.3415)
(0.496936 0.057244 19.9485)
(0.499891 0.0149181 19.7195)
(0.481043 -0.0237082 19.6256)
(0.462359 -0.0421054 19.654)
(0.43926 -0.0503135 19.7157)
(0.426013 -0.0483103 19.728)
(0.420032 -0.0433028 19.6934)
(0.416636 -0.0369021 19.6339)
(0.415447 -0.0294571 19.5638)
(0.415777 -0.0237659 19.4956)
(0.415304 -0.017607 19.4432)
(0.411885 0.00414343 23.5738)
(0.414012 0.0116652 23.5624)
(0.41771 0.0192663 23.5053)
(0.421295 0.0278348 23.2565)
(0.424996 0.0385834 22.8772)
(0.429838 0.0525875 22.3929)
(0.44026 0.0715409 21.8738)
(0.463509 0.0864709 21.3846)
(0.490511 0.0779401 20.9673)
(0.505867 0.053105 20.6243)
(0.509449 0.0172053 20.3987)
(0.495176 -0.0163652 20.2647)
(0.479509 -0.035182 20.2369)
(0.460285 -0.0444652 20.2252)
(0.445766 -0.0442537 20.1949)
(0.438267 -0.0406732 20.1308)
(0.432922 -0.0354165 20.0379)
(0.429696 -0.0288263 19.9394)
(0.42839 -0.0234398 19.8491)
(0.426687 -0.0173357 19.7844)
(0.415281 0.00364701 23.775)
(0.417148 0.0103737 23.7623)
(0.420781 0.0174561 23.7426)
(0.425648 0.0257452 23.5914)
(0.431319 0.0361077 23.29)
(0.438869 0.0487329 22.8872)
(0.450982 0.0643952 22.4129)
(0.473502 0.0761724 21.9362)
(0.497739 0.0691734 21.5287)
(0.512695 0.0485398 21.2034)
(0.517223 0.0183588 20.9723)
(0.506618 -0.0107371 20.8093)
(0.492966 -0.0285778 20.7354)
(0.477097 -0.0389019 20.6803)
(0.462882 -0.0398515 20.6124)
(0.454114 -0.0374481 20.5166)
(0.447392 -0.0332407 20.3953)
(0.442552 -0.0275246 20.2719)
(0.43997 -0.0226067 20.1618)
(0.437029 -0.0167574 20.0857)
(0.418397 0.00318613 23.9575)
(0.420204 0.00924631 23.9463)
(0.4236 0.0155681 23.935)
(0.429154 0.0231734 23.8608)
(0.436353 0.0328728 23.6316)
(0.445921 0.0441728 23.3054)
(0.459202 0.0571754 22.8967)
(0.480829 0.0666606 22.4511)
(0.503374 0.0611144 22.0485)
(0.518048 0.0440711 21.725)
(0.523566 0.0187374 21.4831)
(0.516062 -0.00669195 21.295)
(0.504051 -0.0231089 21.1795)
(0.490791 -0.03309 21.0893)
(0.47739 -0.0351676 20.9865)
(0.467867 -0.033823 20.861)
(0.460205 -0.0305576 20.7141)
(0.454107 -0.0256869 20.568)
(0.450509 -0.0213229 20.4399)
(0.446358 -0.0158766 20.353)
(0.421253 0.00279088 24.1245)
(0.423045 0.00818664 24.1159)
(0.426396 0.0137246 24.1046)
(0.431978 0.0203348 24.0749)
(0.440337 0.0290282 23.9222)
(0.451219 0.0391661 23.6568)
(0.465414 0.0499093 23.3224)
(0.48605 0.0577089 22.9256)
(0.507459 0.0534956 22.5356)
(0.522122 0.039642 22.2094)
(0.528594 0.0184679 21.9537)
(0.523984 -0.00381139 21.75)
(0.513841 -0.0185921 21.5949)
(0.502178 -0.0276925 21.4641)
(0.489679 -0.0305073 21.3263)
(0.479781 -0.0299807 21.1705)
(0.471499 -0.027515 20.9988)
(0.464423 -0.0234257 20.8317)
(0.46002 -0.0196403 20.6869)
(0.454728 -0.0147101 20.5898)
(0.423915 0.00239916 24.2787)
(0.425686 0.00713391 24.2722)
(0.429138 0.0119347 24.2615)
(0.43451 0.0174289 24.2486)
(0.443208 0.0248643 24.1642)
(0.455144 0.0337925 23.9583)
(0.470058 0.0427913 23.689)
(0.489677 0.0490942 23.3527)
(0.510069 0.0461284 22.9922)
(0.524978 0.0350933 22.6665)
(0.532466 0.0175928 22.3968)
(0.53025 -0.00120378 22.1791)
(0.522243 -0.0144345 21.9865)
(0.511818 -0.0228273 21.8122)
(0.500131 -0.0259908 21.636)
(0.490069 -0.0260194 21.4482)
(0.481372 -0.0242108 21.252)
(0.473533 -0.0208326 21.0649)
(0.468511 -0.0176198 20.9045)
(0.462227 -0.0132781 20.798)
(0.426397 0.00202671 24.422)
(0.42815 0.00606056 24.4168)
(0.431736 0.0101503 24.4083)
(0.437029 0.0145528 24.3986)
(0.44535 0.0204563 24.3614)
(0.45793 0.0279858 24.2189)
(0.473276 0.0356739 23.9992)
(0.49207 0.0409766 23.7265)
(0.51147 0.0389314 23.412)
(0.526673 0.0302999 23.0984)
(0.5354 0.0161666 22.8179)
(0.53519 0.000756332 22.5763)
(0.529059 -0.0107406 22.3477)
(0.519828 -0.0183978 22.1318)
(0.508947 -0.0215847 21.9138)
(0.498857 -0.0219819 21.6944)
(0.489873 -0.0207125 21.4743)
(0.481443 -0.017983 21.2684)
(0.475949 -0.0153297 21.0934)
(0.468846 -0.0116188 20.9781)
(0.428721 0.00165606 24.5558)
(0.430475 0.00496683 24.5517)
(0.434124 0.00833495 24.5456)
(0.43952 0.0118211 24.537)
(0.447234 0.0161953 24.5227)
(0.459494 0.0221748 24.4405)
(0.47522 0.0287071 24.2664)
(0.493582 0.0332384 24.0457)
(0.512124 0.0319057 23.7839)
(0.527403 0.0251956 23.4983)
(0.537469 0.0140696 23.2129)
(0.538884 0.00184957 22.9442)
(0.534453 -0.00778316 22.676)
(0.526357 -0.0143663 22.4147)
(0.516238 -0.0173962 22.1555)
(0.506129 -0.0179261 21.9059)
(0.497016 -0.0170734 21.6648)
(0.488135 -0.0149347 21.4414)
(0.482288 -0.012827 21.2533)
(0.47451 -0.00977407 21.13)
(0.430902 0.00128746 24.6813)
(0.432663 0.00386667 24.6781)
(0.43633 0.00649669 24.6737)
(0.441848 0.00917359 24.6669)
(0.449239 0.0122304 24.6591)
(0.460435 0.0164542 24.6232)
(0.476046 0.0216866 24.5019)
(0.494278 0.0257654 24.3188)
(0.51237 0.0250404 24.1018)
(0.52775 0.0199059 23.848)
(0.538444 0.011415 23.5636)
(0.541553 0.00215206 23.2656)
(0.538546 -0.00544591 22.956)
(0.531472 -0.0107244 22.6521)
(0.522059 -0.01342 22.3588)
(0.511985 -0.0139414 22.083)
(0.502783 -0.0133513 21.8218)
(0.493575 -0.0117387 21.583)
(0.487476 -0.0101579 21.3835)
(0.479152 -0.00777766 21.2533)
(0.432961 0.000921891 24.7994)
(0.434736 0.00276342 24.7971)
(0.438413 0.00463037 24.7938)
(0.443976 0.00654192 24.7889)
(0.451348 0.00857055 24.7824)
(0.461502 0.0111557 24.7705)
(0.475946 0.0148591 24.7018)
(0.494023 0.0183504 24.557)
(0.512287 0.0182222 24.3672)
(0.528001 0.0144929 24.1307)
(0.539087 0.00845351 23.8414)
(0.543368 0.00190399 23.5158)
(0.541451 -0.00359745 23.1743)
(0.535256 -0.00737348 22.8389)
(0.526408 -0.00950611 22.5198)
(0.516452 -0.00996432 22.2212)
(0.507172 -0.0095715 21.9428)
(0.497727 -0.00843786 21.6914)
(0.491463 -0.00736151 21.4827)
(0.482705 -0.00564019 21.3469)
(0.434905 0.000511805 24.9107)
(0.436674 0.00161511 24.9081)
(0.440337 0.002738 24.9043)
(0.445876 0.00389455 24.8994)
(0.453281 0.00508657 24.8929)
(0.462888 0.00640209 24.8866)
(0.475599 0.00842654 24.858)
(0.492825 0.0108496 24.7595)
(0.511651 0.0111368 24.5864)
(0.528098 0.00890368 24.3443)
(0.539522 0.0051795 24.0382)
(0.544592 0.00126914 23.6897)
(0.543271 -0.00202029 23.3258)
(0.537667 -0.00430491 22.9692)
(0.52926 -0.0056465 22.6311)
(0.519447 -0.00595339 22.3162)
(0.510141 -0.00575082 22.0253)
(0.500551 -0.00506757 21.7649)
(0.494221 -0.00447481 21.5497)
(0.485097 -0.00343976 21.41)
(0.436673 0.000151349 25.0081)
(0.43833 0.000516476 24.9973)
(0.441884 0.000900645 24.9876)
(0.447322 0.00129163 24.9786)
(0.45466 0.00168767 24.9698)
(0.464109 0.00208421 24.9613)
(0.475563 0.00270815 24.9482)
(0.491536 0.00360629 24.8964)
(0.510785 0.0037927 24.7331)
(0.52793 0.00301733 24.4714)
(0.539575 0.00178247 24.1457)
(0.545049 0.000480352 23.7821)
(0.543996 -0.000641002 23.405)
(0.538762 -0.00140936 23.0365)
(0.530623 -0.00186243 22.6882)
(0.520933 -0.00197272 22.3646)
(0.511662 -0.00191668 22.0672)
(0.502013 -0.00168485 21.8021)
(0.495719 -0.00151834 21.5835)
(0.486282 -0.00118317 21.4418)
(0.403427 0.00675312 23.1062)
(0.406735 0.0159169 23.0743)
(0.409718 0.023396 22.7998)
(0.409474 0.0307081 22.3434)
(0.406632 0.0415609 21.7853)
(0.404723 0.0599016 21.2228)
(0.409841 0.0881649 20.6831)
(0.434098 0.112549 20.1589)
(0.407815 0.00586598 23.353)
(0.410219 0.0143585 23.3439)
(0.413748 0.0222886 23.2025)
(0.415792 0.0305401 22.8557)
(0.416484 0.0415976 22.3833)
(0.418248 0.0579501 21.8452)
(0.426667 0.0812611 21.3074)
(0.451114 0.0997904 20.808)
(0.483297 0.0869371 20.3626)
(0.497137 0.0559852 19.9728)
(0.497252 0.0150204 19.7475)
(0.480371 -0.0166458 19.6481)
(0.464974 -0.0386437 19.681)
(0.443589 -0.051084 19.7399)
(0.428782 -0.0497607 19.7335)
(0.421047 -0.0436198 19.6924)
(0.416833 -0.0370121 19.6334)
(0.415471 -0.0295295 19.5634)
(0.415758 -0.0238074 19.4953)
(0.415254 -0.0176263 19.443)
(0.411681 0.00500713 23.5759)
(0.413618 0.012794 23.5658)
(0.417352 0.0206334 23.51)
(0.420919 0.0292358 23.263)
(0.424561 0.0401643 22.8858)
(0.429484 0.0547476 22.4064)
(0.440145 0.0738377 21.8889)
(0.463963 0.0881608 21.3977)
(0.491314 0.0783263 20.9835)
(0.50599 0.0528192 20.6423)
(0.508198 0.017971 20.4192)
(0.494914 -0.0116929 20.282)
(0.480734 -0.0315237 20.2572)
(0.463209 -0.0433402 20.2507)
(0.448858 -0.044688 20.2063)
(0.439514 -0.0408423 20.1302)
(0.433162 -0.0355022 20.0375)
(0.429735 -0.0288851 19.9391)
(0.428383 -0.0234759 19.8489)
(0.426651 -0.0173532 19.7842)
(0.415127 0.00437987 23.7767)
(0.41685 0.0113321 23.765)
(0.420474 0.0186649 23.7458)
(0.425302 0.0270577 23.5959)
(0.430962 0.0375572 23.2961)
(0.438547 0.0506211 22.8974)
(0.450768 0.066299 22.425)
(0.473643 0.0777135 21.9469)
(0.498138 0.0700257 21.5414)
(0.512787 0.0490584 21.217)
(0.516583 0.0195315 20.9879)
(0.506639 -0.00803246 20.8233)
(0.493776 -0.0256771 20.7466)
(0.478848 -0.036644 20.6959)
(0.465389 -0.0392477 20.6217)
(0.45531 -0.037437 20.5161)
(0.447646 -0.033288 20.395)
(0.4426 -0.0275671 20.2717)
(0.439973 -0.0226354 20.1617)
(0.437005 -0.016772 20.0855)
(0.418282 0.0037861 23.9588)
(0.419986 0.010023 23.9484)
(0.423364 0.0165542 23.9374)
(0.42885 0.0243234 23.8639)
(0.436036 0.0341408 23.636)
(0.445612 0.0457938 23.3129)
(0.458955 0.0587805 22.9061)
(0.480812 0.0680288 22.4596)
(0.503563 0.0621862 22.0585)
(0.518109 0.0449871 21.7356)
(0.523154 0.0200991 21.4955)
(0.516227 -0.00445923 21.3108)
(0.505023 -0.0207319 21.1886)
(0.49182 -0.030999 21.0976)
(0.479286 -0.0342324 20.9937)
(0.468893 -0.0337068 20.8606)
(0.460453 -0.0305698 20.7138)
(0.454157 -0.0257131 20.5679)
(0.450518 -0.0213438 20.4398)
(0.446344 -0.0158877 20.3529)
(0.421169 0.00327587 24.1256)
(0.422889 0.00880755 24.1176)
(0.426228 0.0145007 24.1064)
(0.431731 0.0212863 24.0771)
(0.440064 0.0301033 23.9252)
(0.450961 0.0404683 23.6614)
(0.465155 0.0513016 23.3282)
(0.485958 0.0588968 22.9322)
(0.507541 0.0545821 22.5436)
(0.522171 0.0406517 22.2178)
(0.528386 0.0198625 21.9638)
(0.524185 -0.00147521 21.7634)
(0.51474 -0.0163621 21.6036)
(0.502883 -0.0260814 21.4707)
(0.491124 -0.0295441 21.3319)
(0.480628 -0.0298148 21.1702)
(0.471726 -0.0274996 20.9987)
(0.464472 -0.023439 20.8316)
(0.460033 -0.0196551 20.6868)
(0.454721 -0.0147183 20.5898)
(0.423853 0.00278955 24.2796)
(0.425576 0.00762674 24.2735)
(0.429023 0.0125396 24.2629)
(0.434325 0.0181739 24.2501)
(0.442988 0.0257353 24.1663)
(0.454935 0.0348165 23.9607)
(0.46982 0.0438778 23.692)
(0.489523 0.0502225 23.3573)
(0.510084 0.0471358 22.9984)
(0.525026 0.0360535 22.673)
(0.532489 0.0188732 22.405)
(0.530547 0.000840286 22.1873)
(0.522766 -0.0126611 21.9905)
(0.512247 -0.021498 21.8174)
(0.501231 -0.0250759 21.64)
(0.490742 -0.0258459 21.4477)
(0.48156 -0.0241796 21.2519)
(0.47358 -0.0208366 21.0649)
(0.468524 -0.0176297 20.9044)
(0.462225 -0.0132838 20.7979)
(0.426352 0.00234065 24.4227)
(0.428074 0.00644831 24.4179)
(0.431657 0.0106319 24.4093)
(0.43689 0.0151671 24.3996)
(0.445162 0.0212043 24.3626)
(0.457739 0.0288841 24.2203)
(0.473049 0.0366177 24.001)
(0.491888 0.041934 23.7296)
(0.511439 0.0398211 23.4165)
(0.526712 0.0311564 23.1033)
(0.535503 0.0172565 22.8243)
(0.535496 0.00212918 22.5828)
(0.529432 -0.00957158 22.3508)
(0.520111 -0.0173025 22.1354)
(0.509767 -0.0208456 21.9161)
(0.499356 -0.0218722 21.6935)
(0.490026 -0.0206825 21.4741)
(0.481486 -0.0179815 21.2683)
(0.475962 -0.0153358 21.0934)
(0.468846 -0.0116226 20.978)
(0.428688 0.00190297 24.5564)
(0.430424 0.0052661 24.5525)
(0.434074 0.00871031 24.5463)
(0.439416 0.0122966 24.5375)
(0.44709 0.0167717 24.5234)
(0.459329 0.0228551 24.4414)
(0.475028 0.0294359 24.2676)
(0.49341 0.0340113 24.0477)
(0.512068 0.0326629 23.787)
(0.52743 0.0259318 23.5017)
(0.537501 0.0149651 23.2177)
(0.539148 0.00281769 22.949)
(0.53475 -0.00697954 22.6782)
(0.526562 -0.0134861 22.417)
(0.516825 -0.0167713 22.1577)
(0.50653 -0.0178803 21.9059)
(0.49715 -0.0170589 21.6647)
(0.488174 -0.0149318 21.4414)
(0.482301 -0.0128303 21.2533)
(0.474513 -0.00977658 21.13)
(0.430878 0.00147243 24.6817)
(0.432629 0.00408807 24.6787)
(0.436299 0.00676393 24.6741)
(0.441777 0.00952138 24.6672)
(0.449131 0.0126637 24.6596)
(0.460306 0.01696 24.6238)
(0.475887 0.0222419 24.5026)
(0.494124 0.0263544 24.3201)
(0.512306 0.0256411 24.1037)
(0.527767 0.0204908 23.8501)
(0.538534 0.0121191 23.5665)
(0.541767 0.0028748 23.2685)
(0.538787 -0.00485128 22.9572)
(0.531627 -0.010037 22.6532)
(0.522421 -0.0128387 22.3606)
(0.512366 -0.0138287 22.0836)
(0.502914 -0.013339 21.8217)
(0.493609 -0.0117366 21.583)
(0.48749 -0.0101597 21.3835)
(0.479155 -0.00777917 21.2532)
(0.432944 0.00105201 24.7996)
(0.434714 0.00292041 24.7974)
(0.438397 0.0048181 24.794)
(0.443932 0.0067862 24.7891)
(0.451275 0.00888285 24.7826)
(0.461403 0.0115182 24.7707)
(0.47581 0.0152636 24.7022)
(0.493895 0.0187585 24.5577)
(0.512226 0.0186419 24.3682)
(0.528008 0.0149145 24.1317)
(0.539174 0.00897343 23.8426)
(0.543542 0.00242761 23.5172)
(0.541652 -0.00317885 23.1748)
(0.535359 -0.00691856 22.8392)
(0.526635 -0.00900709 22.5204)
(0.516712 -0.00979047 22.2214)
(0.50728 -0.00955477 21.9427)
(0.497755 -0.00843605 21.6914)
(0.491475 -0.00736224 21.4827)
(0.482709 -0.00564139 21.3469)
(0.434893 0.000599602 24.9108)
(0.436659 0.00172036 24.9083)
(0.44033 0.00286274 24.9045)
(0.445849 0.00404746 24.8994)
(0.453229 0.00527734 24.893)
(0.462812 0.00662339 24.8866)
(0.47549 0.00867245 24.8581)
(0.492713 0.0111154 24.7598)
(0.511592 0.0114222 24.5868)
(0.528108 0.00914337 24.3446)
(0.539596 0.0055061 24.0386)
(0.544723 0.00159407 23.6901)
(0.543413 -0.00178831 23.3259)
(0.53778 -0.00402677 22.9691)
(0.529415 -0.00532924 22.631)
(0.519617 -0.00583072 22.3161)
(0.510223 -0.00573892 22.0252)
(0.500576 -0.00506555 21.7649)
(0.494232 -0.00447523 21.5497)
(0.485101 -0.00344042 21.41)
(0.436666 0.000173984 25.0081)
(0.438319 0.000544609 24.9974)
(0.441875 0.000931338 24.9877)
(0.447302 0.00133155 24.9786)
(0.45462 0.00174644 24.9698)
(0.464048 0.00215423 24.9613)
(0.475488 0.00277423 24.9483)
(0.491467 0.00366031 24.8965)
(0.510747 0.00384471 24.7332)
(0.527938 0.00307467 24.4715)
(0.539624 0.00185085 24.1458)
(0.545159 0.000554167 23.7822)
(0.544108 -0.00057255 23.4051)
(0.538859 -0.00132738 23.0363)
(0.530747 -0.00176823 22.688)
(0.521063 -0.00193715 22.3645)
(0.511723 -0.00191394 22.0672)
(0.502035 -0.00168394 21.8021)
(0.49573 -0.00151848 21.5835)
(0.486286 -0.00118339 21.4418)
(0.403691 0.00613992 23.1085)
(0.407234 0.0148477 23.077)
(0.41006 0.0221252 22.8022)
(0.409659 0.0295609 22.3454)
(0.406812 0.04045 21.7875)
(0.404962 0.0585378 21.2263)
(0.410216 0.0868354 20.6873)
(0.434146 0.11103 20.1618)
(0.407983 0.00541178 23.355)
(0.410575 0.0135348 23.3464)
(0.414052 0.0212131 23.2051)
(0.415992 0.0294574 22.8581)
(0.416639 0.0405293 22.3858)
(0.41844 0.0567926 21.8483)
(0.42699 0.0800071 21.3107)
(0.451429 0.0984102 20.811)
(0.4835 0.0862977 20.3638)
(0.497396 0.0554582 19.9735)
(0.497614 0.0133488 19.7505)
(0.479621 -0.0206329 19.6578)
(0.463799 -0.040945 19.6893)
(0.442325 -0.0514901 19.7435)
(0.428235 -0.0493494 19.7339)
(0.420909 -0.0435457 19.6923)
(0.416848 -0.0370262 19.6329)
(0.415476 -0.0295313 19.5629)
(0.415747 -0.0238032 19.4948)
(0.415223 -0.0176229 19.4426)
(0.411784 0.00470614 23.5776)
(0.413857 0.0122502 23.5679)
(0.41759 0.0198365 23.5123)
(0.421104 0.0283448 23.2653)
(0.424707 0.0392361 22.8882)
(0.42966 0.0537874 22.4091)
(0.440439 0.0728193 21.8918)
(0.464312 0.0870971 21.4005)
(0.491583 0.0773374 20.9853)
(0.506198 0.0517103 20.6438)
(0.508037 0.0162145 20.4224)
(0.494299 -0.0142408 20.2891)
(0.480217 -0.0330694 20.2646)
(0.462498 -0.0439483 20.2554)
(0.448353 -0.0444843 20.2076)
(0.439276 -0.0407786 20.1302)
(0.433166 -0.0355135 20.0372)
(0.429749 -0.0288934 19.9388)
(0.428376 -0.0234797 19.8485)
(0.426625 -0.0173545 19.7839)
(0.415187 0.00420629 23.778)
(0.416996 0.0110102 23.7666)
(0.420637 0.018133 23.7478)
(0.425454 0.026389 23.598)
(0.431091 0.0368123 23.2983)
(0.438713 0.0498293 22.8998)
(0.45105 0.0654686 22.4275)
(0.473977 0.0768496 21.9494)
(0.498388 0.0690608 21.5435)
(0.512891 0.0479605 21.2189)
(0.516258 0.0181021 20.9911)
(0.506114 -0.00935773 20.8289)
(0.493581 -0.0267359 20.7524)
(0.478418 -0.0374048 20.7)
(0.465012 -0.0393868 20.6232)
(0.455077 -0.0374214 20.5162)
(0.447633 -0.0332895 20.3949)
(0.442617 -0.0275756 20.2715)
(0.43997 -0.0226419 20.1615)
(0.436984 -0.0167758 20.0853)
(0.418317 0.00369664 23.9599)
(0.420067 0.00984662 23.9497)
(0.423462 0.0162335 23.9389)
(0.428957 0.0238652 23.8656)
(0.436135 0.0335801 23.6379)
(0.445762 0.0451648 23.315)
(0.459226 0.0580846 22.9083)
(0.481118 0.0672788 22.4618)
(0.50377 0.061322 22.0606)
(0.51815 0.0440165 21.7376)
(0.522854 0.0189985 21.4984)
(0.51577 -0.00522532 21.3159)
(0.504929 -0.0214266 21.1933)
(0.491573 -0.0316443 21.1008)
(0.479086 -0.0345294 20.9952)
(0.468713 -0.0337352 20.8608)
(0.460432 -0.0305703 20.7138)
(0.454176 -0.0257201 20.5677)
(0.450518 -0.0213507 20.4397)
(0.446328 -0.0158926 20.3528)
(0.42119 0.00323761 24.1264)
(0.42293 0.00871768 24.1186)
(0.426274 0.0143225 24.1076)
(0.431791 0.0209915 24.0784)
(0.440128 0.029707 23.9268)
(0.451081 0.0399992 23.6631)
(0.465404 0.0507345 23.3302)
(0.486237 0.0582224 22.9342)
(0.507716 0.0538306 22.5455)
(0.522179 0.0398413 22.2197)
(0.528142 0.0190144 21.9663)
(0.523812 -0.00200902 21.7676)
(0.514623 -0.0168174 21.6069)
(0.502715 -0.0264754 21.4731)
(0.491028 -0.0298222 21.333)
(0.480505 -0.0298595 21.1703)
(0.471704 -0.0275018 20.9986)
(0.464491 -0.0234437 20.8315)
(0.460034 -0.019661 20.6867)
(0.454708 -0.0147228 20.5897)
(0.423866 0.00277697 24.2803)
(0.425592 0.00758059 24.2743)
(0.429031 0.0124407 24.2638)
(0.434343 0.0179898 24.2511)
(0.443021 0.0254585 24.1675)
(0.455023 0.0344916 23.9621)
(0.470014 0.0434446 23.6936)
(0.489771 0.0496421 23.359)
(0.510244 0.0464962 23.0001)
(0.525023 0.035384 22.6747)
(0.532275 0.01821 22.407)
(0.530286 0.000368838 22.1897)
(0.522662 -0.0129348 21.9924)
(0.512132 -0.0217303 21.8191)
(0.501182 -0.0252802 21.6407)
(0.490666 -0.0258823 21.4479)
(0.48155 -0.0241803 21.2519)
(0.473596 -0.0208399 21.0649)
(0.468527 -0.0176346 20.9044)
(0.462215 -0.0132876 20.7979)
(0.426357 0.0023376 24.4232)
(0.428074 0.00642264 24.4185)
(0.431637 0.0105772 24.41)
(0.436873 0.0150665 24.4003)
(0.445163 0.021039 24.3634)
(0.457791 0.028685 24.2213)
(0.473195 0.0363221 24.0022)
(0.492097 0.0414897 23.731)
(0.511589 0.0392838 23.418)
(0.526708 0.0305941 23.1048)
(0.535324 0.0167367 22.826)
(0.5353 0.00179914 22.5846)
(0.529359 -0.00973658 22.3521)
(0.520042 -0.0174454 22.1365)
(0.509748 -0.0209614 21.9164)
(0.499309 -0.0218761 21.6935)
(0.490022 -0.0206783 21.4741)
(0.481498 -0.0179838 21.2683)
(0.475966 -0.0153398 21.0933)
(0.468839 -0.0116255 20.978)
(0.428689 0.00190067 24.5568)
(0.430412 0.00524869 24.553)
(0.434038 0.00868405 24.5468)
(0.439376 0.0122597 24.538)
(0.447071 0.0166993 24.5239)
(0.459359 0.0227481 24.4421)
(0.475135 0.0292679 24.2685)
(0.493574 0.0337034 24.0489)
(0.512196 0.0322278 23.7883)
(0.527431 0.0254634 23.503)
(0.537372 0.0145618 23.219)
(0.539009 0.00258658 22.9504)
(0.534706 -0.00707526 22.6792)
(0.52653 -0.0135743 22.4176)
(0.516808 -0.0168378 22.1578)
(0.506527 -0.017872 21.906)
(0.497141 -0.0170523 21.6647)
(0.488183 -0.0149334 21.4414)
(0.482305 -0.0128335 21.2533)
(0.474507 -0.00977892 21.13)
(0.430876 0.00146474 24.682)
(0.432612 0.00407 24.6791)
(0.436259 0.00675263 24.6745)
(0.44173 0.0095231 24.6676)
(0.449104 0.0126531 24.66)
(0.46032 0.0169274 24.6243)
(0.475956 0.0221575 24.5033)
(0.494239 0.0261505 24.321)
(0.512402 0.0253051 24.1048)
(0.527776 0.0201102 23.8512)
(0.538453 0.0118069 23.5676)
(0.541681 0.00270146 23.2696)
(0.538768 -0.00491115 22.9579)
(0.531627 -0.0100863 22.6536)
(0.522436 -0.0128665 22.3608)
(0.512357 -0.0138421 22.0836)
(0.502905 -0.0133322 21.8217)
(0.493619 -0.0117364 21.583)
(0.487492 -0.010162 21.3835)
(0.479152 -0.00778102 21.2532)
(0.432939 0.00103955 24.7999)
(0.434695 0.0029013 24.7977)
(0.43836 0.00481251 24.7943)
(0.443887 0.00680234 24.7893)
(0.451243 0.00890124 24.7829)
(0.461403 0.0115229 24.7711)
(0.475845 0.0152245 24.7026)
(0.493964 0.0186276 24.5583)
(0.51229 0.0184012 24.369)
(0.528019 0.0146308 24.1326)
(0.539137 0.00874872 23.8435)
(0.543501 0.00229945 23.518)
(0.541659 -0.00320523 23.1753)
(0.535379 -0.00693649 22.8395)
(0.526657 -0.00904973 22.5205)
(0.516718 -0.00981472 22.2214)
(0.507276 -0.00954884 21.9427)
(0.497766 -0.00843417 21.6914)
(0.491478 -0.007364 21.4827)
(0.482706 -0.00564236 21.3469)
(0.434887 0.000592037 24.911)
(0.436641 0.00171184 24.9085)
(0.440298 0.0028629 24.9047)
(0.445808 0.0040629 24.8996)
(0.453194 0.00529968 24.8932)
(0.462799 0.00663802 24.8868)
(0.475503 0.0086598 24.8585)
(0.492747 0.0110489 24.7603)
(0.511625 0.0112868 24.5874)
(0.52812 0.00897299 24.3452)
(0.539588 0.00537901 24.0392)
(0.544704 0.00153017 23.6907)
(0.543432 -0.001795 23.3263)
(0.537813 -0.00402631 22.9693)
(0.529438 -0.00536611 22.6311)
(0.519634 -0.00585306 22.3161)
(0.510228 -0.00573501 22.0253)
(0.500585 -0.00506386 21.7649)
(0.494235 -0.00447609 21.5497)
(0.485099 -0.00344116 21.41)
(0.43666 0.000169374 25.0083)
(0.438301 0.000539772 24.9976)
(0.441845 0.000927972 24.9879)
(0.447264 0.00133377 24.9788)
(0.454588 0.00175241 24.97)
(0.464035 0.00215712 24.9616)
(0.475498 0.00276461 24.9486)
(0.491489 0.00363027 24.8969)
(0.510771 0.00379125 24.7337)
(0.52795 0.00301784 24.472)
(0.539622 0.00180409 24.1463)
(0.545141 0.000527273 23.7826)
(0.544132 -0.000577166 23.4053)
(0.538907 -0.00132161 23.0365)
(0.530774 -0.00178108 22.6881)
(0.521085 -0.0019457 22.3646)
(0.511741 -0.00191236 22.0672)
(0.502044 -0.00168339 21.8021)
(0.495733 -0.00151877 21.5836)
(0.486283 -0.00118372 21.4418)
(0.403764 0.00596806 23.1083)
(0.407367 0.0146607 23.0766)
(0.410158 0.0219624 22.8015)
(0.409779 0.0294159 22.3445)
(0.407032 0.0402276 21.7864)
(0.405194 0.0580219 21.2252)
(0.410317 0.086118 20.6862)
(0.433962 0.110111 20.1605)
(0.408046 0.00519307 23.3549)
(0.410699 0.013276 23.3461)
(0.414155 0.0209416 23.2046)
(0.416101 0.0291926 22.8575)
(0.416798 0.0401969 22.385)
(0.418595 0.0562687 21.8475)
(0.427049 0.0793763 21.3098)
(0.451314 0.0977365 20.81)
(0.483358 0.0858572 20.3628)
(0.497694 0.05496 19.9722)
(0.498261 0.0128675 19.7492)
(0.479866 -0.0217724 19.6564)
(0.463306 -0.0414088 19.6882)
(0.44144 -0.0515251 19.7427)
(0.427298 -0.0490401 19.7335)
(0.420504 -0.0435656 19.6919)
(0.416669 -0.0370178 19.6325)
(0.415388 -0.0295176 19.5624)
(0.415697 -0.0237952 19.4944)
(0.41519 -0.0176162 19.4421)
(0.411836 0.00448193 23.5776)
(0.413964 0.0119823 23.5678)
(0.417687 0.0195306 23.5121)
(0.421201 0.0280305 23.2649)
(0.424825 0.0388658 22.8877)
(0.429772 0.0532965 22.4085)
(0.440498 0.0722687 21.8911)
(0.464266 0.0865883 21.3997)
(0.49152 0.0770509 20.9844)
(0.506358 0.0514977 20.6429)
(0.508455 0.01577 20.4214)
(0.494486 -0.0153306 20.2883)
(0.479938 -0.0338944 20.264)
(0.461887 -0.0443069 20.2548)
(0.447628 -0.0444297 20.2072)
(0.438817 -0.0408236 20.13)
(0.432997 -0.0355177 20.0369)
(0.42967 -0.0288849 19.9385)
(0.42833 -0.0234727 19.8482)
(0.426594 -0.0173494 19.7836)
(0.415229 0.00400173 23.7781)
(0.417083 0.0107614 23.7666)
(0.420724 0.0178329 23.7477)
(0.425539 0.0260768 23.5977)
(0.431182 0.0364577 23.298)
(0.438802 0.0493956 22.8994)
(0.451115 0.0650018 22.427)
(0.473982 0.0764206 21.9487)
(0.498379 0.0687677 21.5428)
(0.51302 0.0476972 21.2182)
(0.516525 0.0176378 20.9904)
(0.506215 -0.0101953 20.8284)
(0.493387 -0.0275747 20.752)
(0.477985 -0.037946 20.6997)
(0.464518 -0.039537 20.6229)
(0.45463 -0.0374998 20.5161)
(0.447481 -0.0333087 20.3947)
(0.442547 -0.0275737 20.2712)
(0.439927 -0.0226376 20.1612)
(0.436955 -0.0167727 20.0851)
(0.418352 0.00351125 23.96)
(0.420138 0.00962439 23.9498)
(0.423536 0.0159602 23.9389)
(0.429032 0.0235735 23.8656)
(0.43621 0.0332632 23.6378)
(0.445838 0.0447926 23.3148)
(0.459292 0.0576919 22.908)
(0.481153 0.0669068 22.4614)
(0.503788 0.061019 22.06)
(0.518247 0.0437187 21.737)
(0.523028 0.0185305 21.4979)
(0.515827 -0.00591723 21.3156)
(0.504746 -0.0221501 21.1931)
(0.491276 -0.0321743 21.1007)
(0.478712 -0.0347491 20.9949)
(0.468329 -0.0338364 20.8607)
(0.460299 -0.0306018 20.7137)
(0.454117 -0.0257256 20.5676)
(0.45048 -0.0213499 20.4395)
(0.4463 -0.0158917 20.3526)
(0.421218 0.00307755 24.1266)
(0.422986 0.00852714 24.1187)
(0.426336 0.0140837 24.1076)
(0.43186 0.0207191 24.0785)
(0.440192 0.0294272 23.9268)
(0.451143 0.0396926 23.6631)
(0.46547 0.0504075 23.33)
(0.486285 0.0578991 22.9339)
(0.507745 0.0535371 22.5451)
(0.522245 0.0395437 22.2192)
(0.528246 0.0185801 21.9659)
(0.523829 -0.00261735 21.7675)
(0.514477 -0.0174506 21.6068)
(0.502504 -0.0269169 21.4731)
(0.490738 -0.0300655 21.3329)
(0.48019 -0.0299696 21.1704)
(0.471592 -0.0275387 20.9986)
(0.46444 -0.0234547 20.8314)
(0.460001 -0.0196625 20.6866)
(0.454683 -0.0147233 20.5896)
(0.423888 0.00264328 24.2804)
(0.425636 0.00742104 24.2744)
(0.429081 0.0122385 24.2639)
(0.434405 0.017741 24.2513)
(0.443083 0.0251912 24.1676)
(0.455081 0.0342217 23.9621)
(0.470079 0.0431624 23.6936)
(0.489823 0.0493604 23.3589)
(0.510277 0.0462281 22.9998)
(0.525066 0.0351078 22.6744)
(0.532321 0.0178377 22.4068)
(0.530269 -0.000160521 22.1896)
(0.522569 -0.0134716 21.9925)
(0.511988 -0.0221029 21.8191)
(0.500952 -0.025527 21.6406)
(0.49042 -0.0259921 21.4479)
(0.481458 -0.0242181 21.2519)
(0.473554 -0.0208534 21.0648)
(0.468498 -0.0176378 20.9043)
(0.462193 -0.0132887 20.7978)
(0.426374 0.00222697 24.4234)
(0.428108 0.00629147 24.4187)
(0.431676 0.0104067 24.4102)
(0.436925 0.0148503 24.4006)
(0.445218 0.0207872 24.3637)
(0.457848 0.0284218 24.2215)
(0.473257 0.0360653 24.0023)
(0.492151 0.0412447 23.731)
(0.511622 0.0390505 23.4179)
(0.526735 0.0303521 23.1046)
(0.535335 0.0164289 22.8259)
(0.535269 0.00140384 22.5847)
(0.529288 -0.0101521 22.3522)
(0.519931 -0.017779 22.1366)
(0.509547 -0.0212005 21.9164)
(0.499133 -0.0219538 21.6935)
(0.489948 -0.0207112 21.4742)
(0.481464 -0.0179966 21.2683)
(0.475941 -0.0153437 21.0933)
(0.468819 -0.011627 20.978)
(0.428702 0.00181187 24.5569)
(0.430436 0.0051442 24.5531)
(0.434065 0.00854633 24.547)
(0.439415 0.0120811 24.5383)
(0.447117 0.0164826 24.5242)
(0.459412 0.0225174 24.4424)
(0.475199 0.0290339 24.2687)
(0.49363 0.0334787 24.0489)
(0.512228 0.0320248 23.7882)
(0.527449 0.0252594 23.503)
(0.537375 0.0143177 23.219)
(0.538974 0.00229742 22.9504)
(0.53465 -0.00738173 22.6793)
(0.526436 -0.0138699 22.4178)
(0.51666 -0.0170249 22.1578)
(0.506393 -0.0179245 21.9061)
(0.497076 -0.0170769 21.6647)
(0.488154 -0.0149444 21.4414)
(0.482283 -0.0128377 21.2533)
(0.474489 -0.00978043 21.13)
(0.430885 0.00139475 24.6821)
(0.432628 0.00398807 24.6792)
(0.436275 0.00664684 24.6747)
(0.441757 0.00938495 24.6679)
(0.449142 0.0124795 24.6603)
(0.460371 0.0167385 24.6247)
(0.47602 0.0219609 24.5035)
(0.494296 0.0259533 24.3212)
(0.512435 0.0251221 24.1048)
(0.52779 0.0199342 23.8512)
(0.538446 0.0116047 23.5677)
(0.541643 0.00247252 23.2697)
(0.53872 -0.00514506 22.9581)
(0.53155 -0.0103374 22.6538)
(0.522321 -0.01303 22.361)
(0.512253 -0.0138885 22.0836)
(0.502847 -0.0133487 21.8217)
(0.493594 -0.0117449 21.583)
(0.487472 -0.0101652 21.3835)
(0.479134 -0.00778236 21.2532)
(0.432945 0.000986122 24.8)
(0.434705 0.0028385 24.7979)
(0.438368 0.0047332 24.7945)
(0.443902 0.00670176 24.7896)
(0.45127 0.00877387 24.7832)
(0.461447 0.0113787 24.7714)
(0.475909 0.0150661 24.703)
(0.494024 0.0184705 24.5586)
(0.512327 0.0182476 24.3692)
(0.528034 0.014475 24.1328)
(0.539126 0.00857964 23.8437)
(0.54346 0.00212344 23.5182)
(0.54161 -0.00337793 23.1755)
(0.535316 -0.00711892 22.8397)
(0.526568 -0.00918266 22.5206)
(0.51664 -0.00986158 22.2215)
(0.507226 -0.00955859 21.9428)
(0.497743 -0.00844029 21.6914)
(0.49146 -0.00736637 21.4827)
(0.48269 -0.00564342 21.3469)
(0.434891 0.00055762 24.9112)
(0.436645 0.00167213 24.9087)
(0.440298 0.00281242 24.9049)
(0.445812 0.00399954 24.8999)
(0.453212 0.00521898 24.8935)
(0.462837 0.00654599 24.8872)
(0.475563 0.00855977 24.8588)
(0.49281 0.0109483 24.7606)
(0.511666 0.0111877 24.5877)
(0.528131 0.00887515 24.3455)
(0.539569 0.00526858 24.0395)
(0.544665 0.00141692 23.6909)
(0.543386 -0.00190134 23.3266)
(0.537756 -0.00413627 22.9696)
(0.529365 -0.00544768 22.6313)
(0.51957 -0.00588358 22.3162)
(0.510186 -0.00574035 22.0253)
(0.500563 -0.00506798 21.765)
(0.494218 -0.00447764 21.5497)
(0.485083 -0.003442 21.41)
(0.436662 0.000159057 25.0085)
(0.438302 0.000527771 24.9978)
(0.44184 0.000911878 24.988)
(0.447262 0.00131356 24.979)
(0.454596 0.00172737 24.9703)
(0.464061 0.00212935 24.9618)
(0.475551 0.00273317 24.9489)
(0.491556 0.00359586 24.8972)
(0.510816 0.00375466 24.734)
(0.52796 0.00298429 24.4723)
(0.539599 0.0017683 24.1466)
(0.545105 0.000489787 23.7829)
(0.544085 -0.000612214 23.4056)
(0.538857 -0.00135633 23.0368)
(0.53071 -0.00180481 22.6883)
(0.521028 -0.0019537 22.3647)
(0.511703 -0.00191377 22.0673)
(0.502023 -0.00168488 21.8022)
(0.495717 -0.00151936 21.5836)
(0.486266 -0.00118411 21.4418)
(0.403789 0.00581134 23.1078)
(0.407412 0.0144838 23.076)
(0.410218 0.0217725 22.8006)
(0.409918 0.029178 22.3433)
(0.407301 0.0398951 21.785)