/*--------------------------------*- C++ -*----------------------------------*\
  =========                 |
  \\      /  F ield         | OpenFOAM: The Open Source CFD Toolbox
   \\    /   O peration     | Website:  https://openfoam.org
    \\  /    A nd           | Version:  10
     \\/     M anipulation  |
\*---------------------------------------------------------------------------*/
FoamFile
{
    format      ascii;
    class       volScalarField;
    location    "2000";
    object      k;
}
// * * * * * * * * * * * * * * * * * * * * * * * * * * * * * * * * * * * * * //

dimensions      [0 2 -2 0 0 0 0];

internalField   nonuniform List<scalar> 
55398
(
0.232882
0.208446
0.197742
0.240819
0.361252
0.69028
0.225844
0.201497
0.182113
0.166352
0.153264
0.145201
0.20146
0.65501
2.86038
4.85078
5.0953
5.11423
4.65181
4.26811
0.214532
0.19371
0.176504
0.162265
0.150933
0.144582
0.166459
0.283563
1.85487
4.29358
3.14657
2.13414
1.65137
1.14982
0.890993
0.214577
0.193796
0.176643
0.162439
0.151093
0.143873
0.151217
0.184726
0.300174
0.665813
1.19326
0.527516
0.269539
0.227726
0.201076
0.18165
0.165008
0.156285
0.214744
0.194052
0.176935
0.162714
0.151185
0.143158
0.142998
0.164214
0.201556
0.223004
0.239902
0.212813
0.179082
0.150098
0.138658
0.129738
0.122431
0.114537
0.108192
0.102456
0.214915
0.194327
0.177257
0.163021
0.151334
0.142509
0.138889
0.145758
0.152892
0.154464
0.153099
0.144085
0.135821
0.127582
0.119688
0.113191
0.107645
0.101863
0.0969699
0.0925426
0.215078
0.194591
0.177573
0.163297
0.151564
0.142172
0.136324
0.136343
0.137271
0.136589
0.132678
0.126892
0.120758
0.114154
0.108387
0.10332
0.0987235
0.0940173
0.0898714
0.0860373
0.215228
0.194836
0.177874
0.163661
0.151769
0.142137
0.1351
0.131396
0.128865
0.126111
0.121885
0.117042
0.111927
0.106498
0.101687
0.0972312
0.0931434
0.0890615
0.0853811
0.0819535
0.215271
0.195023
0.178159
0.164006
0.152076
0.142261
0.134451
0.128925
0.124548
0.120467
0.115945
0.111265
0.106467
0.101667
0.0972897
0.0932724
0.0894991
0.085814
0.0824122
0.0792592
0.215505
0.195276
0.178417
0.164244
0.152325
0.142397
0.134228
0.127762
0.122362
0.117464
0.112629
0.107927
0.103347
0.0988736
0.0947688
0.090938
0.0873441
0.0838708
0.0806444
0.0776045
0.215622
0.195471
0.17866
0.16451
0.152579
0.142561
0.134152
0.127189
0.121235
0.115883
0.110815
0.106006
0.101516
0.0971806
0.0931838
0.0894384
0.0859636
0.082616
0.0794949
0.0765348
0.215729
0.195652
0.178885
0.164761
0.152825
0.142746
0.134191
0.12695
0.120691
0.115045
0.109795
0.104928
0.100419
0.0962061
0.0922253
0.088558
0.0851278
0.0818591
0.0787999
0.075881
0.21583
0.19582
0.179096
0.164997
0.153068
0.142944
0.134299
0.126887
0.120438
0.114597
0.109229
0.1043
0.0997637
0.095552
0.0916344
0.0879912
0.0845846
0.0813608
0.0783414
0.0754542
0.215923
0.195977
0.179293
0.165221
0.15334
0.143129
0.134431
0.126918
0.120331
0.114389
0.108916
0.103922
0.0993736
0.0951621
0.0912577
0.0876453
0.0842599
0.0810671
0.0780746
0.0752073
0.216011
0.196125
0.179479
0.165431
0.153521
0.143335
0.13459
0.127021
0.120342
0.114323
0.108788
0.103772
0.0991812
0.094969
0.0910752
0.0874729
0.0840966
0.0809196
0.0779418
0.0750873
0.216094
0.196265
0.179654
0.165627
0.1537
0.143532
0.134764
0.12715
0.12042
0.114346
0.108801
0.103757
0.0991483
0.0949298
0.0910426
0.0874327
0.0840618
0.0808924
0.0779249
0.0750786
0.216172
0.196398
0.179819
0.165812
0.153904
0.143713
0.134943
0.12731
0.120557
0.114458
0.108896
0.103836
0.099214
0.0949859
0.0910884
0.0874775
0.0841011
0.0809294
0.0779582
0.0751109
0.216224
0.196481
0.179916
0.16591
0.153991
0.143792
0.135003
0.127367
0.120587
0.114478
0.108899
0.103832
0.0991969
0.0949599
0.091064
0.0874352
0.0840415
0.0808566
0.0778748
0.0750196
0.232776
0.206608
0.189632
0.20094
0.3667
0.481406
0.225836
0.201487
0.182098
0.166238
0.1533
0.144852
0.190181
0.573604
2.94138
4.87313
5.12391
4.99902
4.66165
4.1486
0.214501
0.19367
0.176517
0.162267
0.150944
0.144549
0.165022
0.283525
1.77311
3.96927
3.08342
2.10242
1.06132
1.12969
0.773148
0.21458
0.193795
0.176645
0.162446
0.151114
0.143858
0.150221
0.183236
0.326804
0.487176
1.068
0.334553
0.265848
0.225972
0.198795
0.178513
0.162026
0.150616
0.214749
0.194053
0.176939
0.162723
0.151191
0.143131
0.142511
0.162835
0.19456
0.215709
0.224528
0.211679
0.167454
0.150683
0.137926
0.129073
0.121807
0.114009
0.1075
0.101571
0.21492
0.194328
0.17726
0.16303
0.151341
0.142485
0.138672
0.144819
0.151769
0.15375
0.150689
0.143879
0.135838
0.127068
0.119115
0.11285
0.10735
0.101577
0.0965675
0.0919766
0.215082
0.194591
0.177576
0.163321
0.151557
0.142183
0.136215
0.13595
0.136641
0.136055
0.13222
0.12673
0.120734
0.114089
0.108355
0.103184
0.0985691
0.0939472
0.0896822
0.0857319
0.215232
0.194837
0.177876
0.163666
0.151789
0.142102
0.13506
0.131218
0.128558
0.125798
0.121622
0.116897
0.111873
0.106464
0.101638
0.0971512
0.0930534
0.0890128
0.0852737
0.0817657
0.215307
0.19502
0.178148
0.163994
0.152087
0.142276
0.134438
0.128871
0.12442
0.120317
0.115796
0.111168
0.106394
0.101639
0.0972786
0.0932248
0.089453
0.0857868
0.0823589
0.079145
0.215504
0.195277
0.178419
0.16425
0.152333
0.142411
0.134213
0.12776
0.122321
0.117402
0.112556
0.107866
0.103301
0.0988583
0.0947576
0.0909095
0.0873143
0.083852
0.08061
0.077535
0.215621
0.195473
0.178662
0.164515
0.152585
0.142589
0.134153
0.127201
0.121233
0.115857
0.110777
0.105949
0.101471
0.0971687
0.0931783
0.0894286
0.0859421
0.0826048
0.0794766
0.0764955
0.215729
0.195653
0.178887
0.164765
0.152831
0.142751
0.134226
0.126983
0.120695
0.115037
0.10978
0.104902
0.100384
0.0962172
0.0922085
0.0885442
0.0851138
0.0818502
0.0787886
0.0758574
0.215829
0.19582
0.179097
0.165
0.153073
0.142949
0.13433
0.126919
0.120443
0.114599
0.109224
0.104285
0.0997404
0.0955461
0.0916377
0.0879847
0.0845773
0.0813553
0.0783355
0.0754412
0.215922
0.195978
0.179294
0.165223
0.153344
0.143148
0.134461
0.126947
0.120339
0.114392
0.108915
0.103909
0.0993658
0.0951617
0.0912594
0.0876429
0.084256
0.0810633
0.0780719
0.0752008
0.21601
0.196126
0.179479
0.165433
0.153525
0.143358
0.134618
0.127047
0.120351
0.114326
0.108789
0.10377
0.0991767
0.0949684
0.0910757
0.0874708
0.0840938
0.0809167
0.077941
0.0750849
0.216093
0.196265
0.179654
0.165628
0.153707
0.143544
0.134784
0.12717
0.120428
0.114349
0.108803
0.103756
0.0991449
0.0949295
0.0910416
0.0874326
0.0840595
0.0808901
0.0779242
0.0750776
0.216171
0.196398
0.17982
0.165812
0.153904
0.143722
0.134954
0.127321
0.120562
0.114461
0.108897
0.103836
0.099211
0.0949856
0.091089
0.0874754
0.0840984
0.0809267
0.0779576
0.07511
0.216223
0.19648
0.179915
0.16591
0.153989
0.143794
0.135007
0.127371
0.120589
0.114479
0.108899
0.103831
0.0991944
0.0949589
0.0910638
0.0874311
0.0840398
0.0808554
0.0778755
0.0750209
0.232827
0.205966
0.186349
0.182519
0.268167
0.396917
0.22584
0.201492
0.182112
0.16621
0.153503
0.145018
0.180969
0.466429
2.93976
4.88893
5.05012
4.76431
4.60956
4.15181
0.214498
0.193654
0.176512
0.16226
0.150947
0.144514
0.164204
0.274387
2.73195
3.91587
3.18512
2.16509
1.0204
1.0419
0.758504
0.214583
0.193793
0.176647
0.162444
0.151117
0.143864
0.15045
0.183411
0.305607
0.402732
0.820668
0.31714
0.26591
0.226331
0.197118
0.176321
0.161152
0.149755
0.214752
0.194051
0.176939
0.162721
0.151187
0.143137
0.142655
0.162978
0.196782
0.216146
0.222538
0.208502
0.165908
0.149886
0.138001
0.128886
0.121288
0.113606
0.107233
0.101483
0.214924
0.194326
0.177261
0.163028
0.151337
0.142494
0.138724
0.144942
0.152115
0.153943
0.150609
0.144015
0.135269
0.126311
0.118936
0.112697
0.107087
0.101363
0.0964165
0.0919102
0.215086
0.19459
0.177577
0.16333
0.151546
0.142213
0.136235
0.135988
0.136763
0.136134
0.132186
0.126765
0.120815
0.113923
0.108251
0.103135
0.0984404
0.0937788
0.0895102
0.0856873
0.215236
0.194835
0.177877
0.163663
0.151792
0.14214
0.135039
0.13122
0.128592
0.125813
0.121609
0.116884
0.111868
0.106398
0.101572
0.0971226
0.0929796
0.0889086
0.0851739
0.0817394
0.215332
0.195022
0.178141
0.163977
0.152082
0.14228
0.134446
0.128874
0.124426
0.120319
0.115782
0.111145
0.106414
0.101605
0.0972526
0.0932107
0.0894166
0.0857298
0.0823069
0.0791272
0.215505
0.195276
0.17842
0.164249
0.152331
0.142415
0.134216
0.127756
0.12232
0.117406
0.112551
0.10782
0.10329
0.098831
0.094737
0.0908997
0.0872919
0.0838161
0.0805768
0.0775235
0.215622
0.195472
0.178663
0.164515
0.152583
0.142585
0.134162
0.127201
0.121232
0.115859
0.110772
0.105927
0.101475
0.0971535
0.0931663
0.0894271
0.085929
0.0825839
0.079458
0.0764898
0.21573
0.195652
0.178889
0.164765
0.152829
0.142756
0.134222
0.126979
0.120697
0.115039
0.109779
0.104898
0.100387
0.0961919
0.092188
0.0885345
0.0851036
0.0818352
0.0787765
0.0758543
0.21583
0.19582
0.179099
0.165
0.153072
0.142953
0.134327
0.126915
0.120443
0.114602
0.109223
0.104283
0.0997413
0.0955331
0.0916118
0.0879731
0.0845715
0.0813463
0.0783289
0.07544
0.215923
0.195977
0.179296
0.165224
0.153337
0.143157
0.134461
0.126944
0.120342
0.114393
0.108914
0.103914
0.0993576
0.0951702
0.091241
0.0876335
0.0842532
0.0810578
0.0780685
0.0752007
0.216011
0.196125
0.179481
0.165433
0.153529
0.143355
0.134618
0.127045
0.120354
0.114327
0.108789
0.10377
0.0991748
0.0949675
0.0910744
0.087467
0.0840933
0.0809134
0.0779397
0.0750855
0.216094
0.196265
0.179656
0.165628
0.153712
0.14354
0.134783
0.127168
0.12043
0.11435
0.108803
0.103756
0.0991427
0.0949287
0.0910395
0.0874308
0.0840597
0.0808877
0.0779235
0.0750783
0.216172
0.196397
0.179821
0.165812
0.153905
0.143721
0.134954
0.12732
0.120563
0.114461
0.108897
0.103836
0.0992086
0.0949847
0.0910873
0.0874736
0.084098
0.0809237
0.0779569
0.0751107
0.216223
0.19648
0.179917
0.16591
0.15399
0.143793
0.135006
0.127371
0.12059
0.114479
0.108899
0.103831
0.0991918
0.0949575
0.0910649
0.0874262
0.0840389
0.0808533
0.077876
0.0750222
0.232887
0.205851
0.184695
0.173322
0.227465
0.356791
0.225842
0.201495
0.182122
0.166176
0.153544
0.145142
0.177152
0.418335
2.79502
4.81239
4.95238
4.74895
4.55122
4.20806
0.214495
0.193644
0.176504
0.162253
0.150948
0.144501
0.163298
0.269321
3.20297
3.88108
3.2956
2.25584
1.02267
1.00961
0.750281
0.214585
0.193792
0.176647
0.162442
0.151118
0.143866
0.150487
0.1841
0.297449
0.388477
0.730097
0.298076
0.260073
0.224845
0.196365
0.176789
0.161587
0.149569
0.214755
0.19405
0.176939
0.162719
0.151184
0.14314
0.14276
0.16324
0.197329
0.217031
0.221846
0.207227
0.165951
0.150942
0.138565
0.128922
0.121091
0.113678
0.107213
0.101459
0.214926
0.194325
0.177261
0.163027
0.151334
0.142499
0.138774
0.145068
0.152421
0.154193
0.150642
0.144181
0.135283
0.126574
0.119012
0.112611
0.106968
0.10142
0.0964151
0.0918914
0.215088
0.194589
0.177577
0.163335
0.151541
0.142233
0.136258
0.136033
0.136878
0.136227
0.132201
0.126809
0.120497
0.113632
0.108168
0.103076
0.0983849
0.0938089
0.0895406
0.0856817
0.215238
0.194835
0.177877
0.163661
0.151793
0.142164
0.13503
0.131223
0.128623
0.125837
0.121614
0.116897
0.111658
0.106191
0.101511
0.0970847
0.0929486
0.0889311
0.0851866
0.0817349
0.215348
0.195028
0.178138
0.163966
0.152075
0.142282
0.134449
0.128876
0.124434
0.120326
0.115781
0.111127
0.106377
0.101513
0.0972359
0.0931967
0.0894048
0.0857445
0.082316
0.0791232
0.215505
0.195275
0.17842
0.164248
0.152329
0.142417
0.134218
0.127755
0.12232
0.117409
0.112551
0.107801
0.103284
0.09879
0.0947305
0.0908918
0.0872848
0.0838237
0.0805796
0.07752
0.215622
0.195471
0.178664
0.164515
0.152582
0.142582
0.134166
0.127202
0.121232
0.115861
0.110771
0.105925
0.101457
0.0971222
0.0931632
0.0894259
0.0859258
0.0825878
0.0794587
0.076488
0.21573
0.195652
0.17889
0.164765
0.152828
0.14276
0.13422
0.126976
0.120697
0.115041
0.10978
0.104897
0.100378
0.096151
0.0922048
0.0885344
0.0851004
0.0818359
0.0787751
0.0758529
0.21583
0.19582
0.1791
0.165001
0.153071
0.142956
0.134326
0.126912
0.120442
0.114604
0.109224
0.104282
0.099736
0.0955138
0.0916112
0.087973
0.08457
0.0813464
0.0783274
0.0754394
0.215923
0.195977
0.179297
0.165225
0.153332
0.14316
0.134462
0.126942
0.120342
0.114394
0.108914
0.103917
0.0993509
0.095161
0.0912244
0.0876281
0.0842515
0.0810572
0.078067
0.0752006
0.216011
0.196125
0.179482
0.165434
0.153532
0.143352
0.134617
0.127044
0.120355
0.114328
0.108789
0.10377
0.0991733
0.0949597
0.0910565
0.0874639
0.0840933
0.0809128
0.0779381
0.0750857
0.216094
0.196265
0.179657
0.165629
0.153716
0.143537
0.134781
0.127167
0.120431
0.114351
0.108803
0.103756
0.0991421
0.0949244
0.0910254
0.0874295
0.0840606
0.0808873
0.0779218
0.0750784
0.216172
0.196397
0.179822
0.165813
0.153906
0.14372
0.134953
0.127319
0.120564
0.114462
0.108898
0.103836
0.0992081
0.0949812
0.0910765
0.0874738
0.0840991
0.080923
0.0779555
0.0751109
0.216224
0.19648
0.179918
0.165911
0.15399
0.143793
0.135006
0.12737
0.120591
0.11448
0.1089
0.103831
0.0991913
0.0949568
0.09106
0.0874238
0.0840387
0.0808522
0.0778751
0.075023
0.23291
0.205999
0.184137
0.168333
0.205903
0.327372
0.225842
0.201496
0.182126
0.166137
0.153405
0.145028
0.172962
0.382981
2.6764
4.67865
4.85447
4.73486
4.54805
4.22145
0.214492
0.193636
0.176497
0.162246
0.150946
0.14449
0.162202
0.258627
3.55132
3.74427
3.39251
2.3584
1.03007
0.996691
0.743331
0.214587
0.193792
0.176647
0.16244
0.151118
0.143865
0.150345
0.183229
0.288821
0.396284
0.805971
0.282354
0.25161
0.221425
0.194945
0.176651
0.16186
0.1495
0.214756
0.19405
0.176939
0.162718
0.151182
0.143141
0.142801
0.163358
0.197051
0.216888
0.220944
0.206619
0.166138
0.151571
0.139066
0.129069
0.120991
0.113692
0.107199
0.101432
0.214927
0.194325
0.177261
0.163026
0.151332
0.142501
0.138809
0.145166
0.152639
0.154428
0.150736
0.144299
0.135331
0.126773
0.119116
0.112575
0.106873
0.101432
0.0964176
0.0918781
0.215089
0.194589
0.177577
0.163339
0.151539
0.142245
0.136278
0.136075
0.136975
0.136321
0.132227
0.126819
0.120388
0.113876
0.108191
0.103042
0.0983355
0.0938158
0.0895649
0.0856843
0.215239
0.194835
0.177878
0.16366
0.151794
0.14218
0.13503
0.131229
0.128649
0.125862
0.12162
0.116904
0.1116
0.106291
0.101502
0.0970552
0.0929187
0.0889386
0.0851984
0.0817348
0.215359
0.195035
0.178138
0.163958
0.152068
0.142283
0.13445
0.128878
0.12444
0.120331
0.115783
0.111115
0.106379
0.101522
0.0972294
0.0931852
0.0893938
0.0857522
0.082325
0.0791228
0.215506
0.195275
0.17842
0.164247
0.152328
0.142418
0.134219
0.127755
0.122319
0.117411
0.112553
0.107787
0.103286
0.0988064
0.0947318
0.0908866
0.0872787
0.0838277
0.0805831
0.0775186
0.215622
0.195471
0.178665
0.164515
0.152581
0.142581
0.134168
0.127204
0.121233
0.115863
0.110771
0.105923
0.10145
0.0971237
0.0931627
0.0894249
0.0859235
0.0825903
0.07946
0.0764871
0.21573
0.195652
0.17889
0.164766
0.152827
0.142762
0.134219
0.126973
0.120696
0.115042
0.109781
0.104896
0.100376
0.0961393
0.0922144
0.0885373
0.0850992
0.0818362
0.0787744
0.0758516
0.21583
0.19582
0.179101
0.165001
0.153071
0.142957
0.134325
0.12691
0.120441
0.114605
0.109225
0.104282
0.0997342
0.0955092
0.0916134
0.0879742
0.0845695
0.0813465
0.0783265
0.0754386
0.215924
0.195977
0.179298
0.165225
0.153329
0.143161
0.134463
0.126941
0.120343
0.114395
0.108915
0.10392
0.0993482
0.0951476
0.0912342
0.0876282
0.0842503
0.0810566
0.0780658
0.0752001
0.216011
0.196125
0.179483
0.165435
0.153534
0.143351
0.134615
0.127042
0.120355
0.114329
0.108789
0.10377
0.099173
0.0949564
0.0910566
0.0874626
0.0840929
0.0809125
0.077937
0.0750855
0.216094
0.196265
0.179658
0.16563
0.153719
0.143536
0.134779
0.127165
0.120431
0.114352
0.108804
0.103756
0.0991426
0.0949223
0.0910231
0.0874285
0.0840609
0.0808871
0.0779207
0.0750782
0.216173
0.196397
0.179823
0.165814
0.153907
0.14372
0.134953
0.127318
0.120564
0.114463
0.108898
0.103836
0.0992091
0.0949793
0.0910728
0.0874733
0.0840996
0.0809227
0.0779545
0.0751108
0.216224
0.19648
0.179919
0.165911
0.153991
0.143793
0.135006
0.12737
0.120591
0.114481
0.1089
0.103831
0.0991927
0.094959
0.0910551
0.0874212
0.0840377
0.0808512
0.0778741
0.0750233
0.232914
0.206194
0.184311
0.166019
0.194729
0.310181
0.225842
0.201497
0.182129
0.166104
0.153164
0.144684
0.169027
0.364093
2.57654
4.51174
4.77312
4.70539
4.5538
4.19762
0.21449
0.193631
0.176491
0.162238
0.15094
0.144471
0.161075
0.248815
3.91127
3.50558
3.44396
2.46757
1.0436
0.99444
0.737658
0.214588
0.193792
0.176647
0.162439
0.151118
0.143863
0.150096
0.181436
0.278591
0.393551
0.940154
0.273509
0.243647
0.216937
0.192793
0.175907
0.16181
0.1494
0.214757
0.19405
0.176939
0.162717
0.151182
0.143141
0.14279
0.163203
0.196187
0.21599
0.219692
0.205872
0.166259
0.151958
0.139462
0.129252
0.12096
0.113681
0.10718
0.101404
0.214928
0.194325
0.177261
0.163025
0.151332
0.142501
0.138828
0.145208
0.152752
0.154593
0.150837
0.144386
0.135379
0.126927
0.11923
0.112579
0.106805
0.101416
0.0964135
0.0918661
0.21509
0.194589
0.177577
0.163342
0.151539
0.142252
0.136295
0.136109
0.137052
0.136408
0.132266
0.126815
0.120309
0.114001
0.108243
0.103033
0.0982976
0.0938077
0.0895784
0.0856886
0.21524
0.194835
0.177878
0.16366
0.151795
0.142191
0.135035
0.131237
0.128672
0.125889
0.121633
0.116911
0.111565
0.106347
0.101513
0.0970373
0.092892
0.0889351
0.0852052
0.0817357
0.215366
0.195042
0.178139
0.163954
0.152063
0.142283
0.134451
0.12888
0.124445
0.120337
0.115787
0.111107
0.106374
0.101532
0.0972288
0.0931768
0.0893837
0.0857544
0.0823317
0.0791239
0.215506
0.195275
0.178421
0.164247
0.152326
0.142419
0.134219
0.127755
0.122319
0.117412
0.112555
0.107778
0.103284
0.0988176
0.0947364
0.0908839
0.0872734
0.083829
0.0805861
0.0775186
0.215623
0.195471
0.178665
0.164516
0.15258
0.14258
0.134169
0.127205
0.121233
0.115863
0.110771
0.105921
0.101445
0.0971236
0.0931628
0.0894241
0.0859216
0.0825915
0.0794614
0.0764868
0.21573
0.195651
0.178891
0.164766
0.152827
0.142763
0.13422
0.126972
0.120695
0.115042
0.109783
0.104896
0.100373
0.0961316
0.0922188
0.0885404
0.0850992
0.0818366
0.0787741
0.0758507
0.21583
0.19582
0.179101
0.165002
0.153071
0.142958
0.134325
0.126909
0.12044
0.114605
0.109226
0.104283
0.0997331
0.0955058
0.0916151
0.0879754
0.0845694
0.0813467
0.078326
0.0754378
0.215924
0.195977
0.179298
0.165226
0.153327
0.143161
0.134463
0.126941
0.120342
0.114396
0.108916
0.103921
0.099347
0.0951383
0.0912397
0.08763
0.08425
0.0810562
0.0780648
0.0751995
0.216012
0.196125
0.179483
0.165435
0.153535
0.14335
0.134614
0.127041
0.120355
0.11433
0.10879
0.10377
0.099173
0.0949533
0.0910584
0.0874625
0.0840926
0.0809122
0.0779362
0.0750851
0.216094
0.196265
0.179658
0.16563
0.153721
0.143535
0.134778
0.127164
0.120431
0.114353
0.108804
0.103756
0.0991431
0.0949197
0.0910234
0.0874282
0.0840609
0.080887
0.07792
0.0750779
0.216173
0.196397
0.179824
0.165814
0.153908
0.14372
0.134952
0.127317
0.120564
0.114463
0.108898
0.103836
0.09921
0.0949763
0.0910722
0.0874729
0.0840998
0.0809226
0.0779538
0.0751104
0.216224
0.19648
0.179919
0.165912
0.153991
0.143793
0.135006
0.12737
0.120591
0.114481
0.108901
0.103832
0.0991936
0.094962
0.0910524
0.0874188
0.0840363
0.0808501
0.0778731
0.0750232
0.232914
0.20634
0.184825
0.165424
0.190021
0.303257
0.225842
0.201497
0.18213
0.166083
0.152903
0.144192
0.165854
0.362888
2.50653
4.33013
4.70078
4.68402
4.55013
4.14769
0.214488
0.193627
0.176486
0.162232
0.150931
0.14444
0.160089
0.241423
4.2624
3.21647
3.42866
2.57444
1.06325
1.00044
0.733638
0.214588
0.193792
0.176646
0.162439
0.151117
0.143859
0.149805
0.179388
0.268835
0.377857
1.0642
0.271565
0.238077
0.212469
0.190168
0.174689
0.161422
0.149181
0.214757
0.19405
0.17694
0.162717
0.151182
0.14314
0.142742
0.162797
0.194745
0.214422
0.218248
0.204923
0.166253
0.152186
0.139757
0.129432
0.120975
0.113667
0.107159
0.101373
0.214928
0.194325
0.177262
0.163025
0.151332
0.142501
0.138832
0.145176
0.152754
0.15466
0.150917
0.144445
0.13541
0.127045
0.119345
0.112612
0.106763
0.10139
0.0964021
0.0918527
0.21509
0.194589
0.177578
0.163343
0.15154
0.142256
0.136306
0.136128
0.137103
0.136479
0.132314
0.126812
0.120254
0.114061
0.108294
0.103041
0.0982725
0.0937938
0.0895829
0.0856915
0.21524
0.194835
0.177878
0.16366
0.151796
0.142198
0.13504
0.131246
0.128691
0.125915
0.121651
0.116921
0.111546
0.10638
0.101531
0.0970286
0.0928705
0.088926
0.0852071
0.0817362
0.21537
0.195047
0.178142
0.163952
0.15206
0.142282
0.134452
0.128882
0.12445
0.120342
0.115795
0.111105
0.106368
0.101538
0.0972312
0.0931713
0.0893749
0.0857535
0.0823362
0.0791257
0.215506
0.195275
0.178421
0.164247
0.152325
0.142419
0.13422
0.127755
0.122319
0.117412
0.112557
0.107772
0.103281
0.0988244
0.0947423
0.0908832
0.0872692
0.0838287
0.0805881
0.0775191
0.215623
0.195471
0.178665
0.164516
0.15258
0.142579
0.13417
0.127206
0.121234
0.115864
0.110772
0.105921
0.101441
0.0971224
0.0931634
0.0894236
0.0859201
0.0825921
0.0794626
0.0764868
0.21573
0.195651
0.178891
0.164766
0.152826
0.142763
0.13422
0.126971
0.120695
0.115042
0.109784
0.104896
0.100372
0.0961266
0.0922213
0.088543
0.0850998
0.0818371
0.0787742
0.07585
0.21583
0.195819
0.179101
0.165002
0.153071
0.142959
0.134325
0.126908
0.120439
0.114604
0.109227
0.104283
0.0997324
0.0955034
0.0916169
0.0879767
0.0845697
0.0813471
0.0783259
0.0754373
0.215924
0.195977
0.179298
0.165226
0.153326
0.143161
0.134463
0.126941
0.120342
0.114396
0.108916
0.103923
0.0993466
0.0951319
0.0912433
0.0876323
0.0842504
0.0810561
0.0780643
0.0751989
0.216012
0.196125
0.179484
0.165436
0.153537
0.14335
0.134614
0.12704
0.120355
0.11433
0.10879
0.10377
0.0991731
0.0949507
0.0910612
0.0874633
0.0840927
0.0809121
0.0779358
0.0750847
0.216095
0.196265
0.179659
0.165631
0.153723
0.143536
0.134777
0.127163
0.120431
0.114353
0.108805
0.103757
0.0991436
0.0949173
0.0910258
0.0874287
0.084061
0.080887
0.0779195
0.0750775
0.216173
0.196397
0.179824
0.165815
0.153908
0.14372
0.134952
0.127317
0.120564
0.114463
0.108899
0.103837
0.0992106
0.0949737
0.0910745
0.0874734
0.0840999
0.0809226
0.0779534
0.0751101
0.216224
0.19648
0.17992
0.165912
0.153992
0.143793
0.135005
0.127369
0.120591
0.114481
0.108901
0.103832
0.0991943
0.0949648
0.0910535
0.0874177
0.084035
0.080849
0.0778721
0.0750228
0.232914
0.206424
0.18538
0.165833
0.188959
0.303434
0.225842
0.201496
0.182131
0.166074
0.152681
0.143654
0.163531
0.374347
2.48642
4.15057
4.61829
4.67964
4.52967
4.08259
0.214487
0.193624
0.176483
0.162228
0.15092
0.144398
0.159347
0.237096
4.57109
2.93959
3.34188
2.66545
1.08734
1.01311
0.731765
0.214588
0.193792
0.176646
0.162438
0.151116
0.143852
0.149527
0.177554
0.260843
0.3678
1.19844
0.275526
0.235725
0.208941
0.187485
0.173194
0.160754
0.148807
0.214758
0.194051
0.17694
0.162717
0.151182
0.143139
0.142675
0.162233
0.192916
0.212284
0.216621
0.203886
0.166143
0.152298
0.139964
0.129591
0.121017
0.113661
0.107139
0.101342
0.214928
0.194325
0.177262
0.163025
0.151332
0.1425
0.138824
0.145075
0.152638
0.154614
0.150953
0.144479
0.13542
0.12713
0.119452
0.112665
0.106747
0.101364
0.0963863
0.0918372
0.215091
0.194589
0.177578
0.163345
0.151541
0.142259
0.136312
0.136129
0.137121
0.136524
0.132363
0.126818
0.120219
0.114089
0.108333
0.103055
0.0982581
0.0937795
0.0895817
0.0856921
0.21524
0.194835
0.177878
0.16366
0.151796
0.142202
0.135044
0.131252
0.128706
0.125938
0.121675
0.116933
0.111539
0.106402
0.101548
0.0970266
0.0928542
0.088915
0.0852055
0.0817355
0.215373
0.195051
0.178145
0.163952
0.152057
0.142281
0.134452
0.128883
0.124454
0.120346
0.115803
0.111107
0.106363
0.101541
0.0972337
0.0931677
0.0893675
0.085751
0.0823389
0.0791273
0.215506
0.195275
0.178421
0.164247
0.152325
0.142419
0.13422
0.127755
0.12232
0.117412
0.11256
0.107769
0.103278
0.0988284
0.0947473
0.0908837
0.087266
0.0838277
0.0805895
0.07752
0.215622
0.19547
0.178665
0.164516
0.15258
0.142579
0.13417
0.127207
0.121235
0.115864
0.110774
0.105921
0.101438
0.0971209
0.0931633
0.089423
0.0859187
0.0825922
0.0794637
0.076487
0.21573
0.195651
0.178891
0.164767
0.152826
0.142764
0.13422
0.126971
0.120694
0.115041
0.109784
0.104897
0.100371
0.0961232
0.0922221
0.0885448
0.0851005
0.0818377
0.0787746
0.0758496
0.21583
0.19582
0.179102
0.165002
0.153071
0.142959
0.134325
0.126908
0.120438
0.114604
0.109227
0.104283
0.099732
0.0955017
0.0916176
0.0879777
0.0845701
0.0813475
0.078326
0.0754369
0.215924
0.195977
0.179299
0.165227
0.153325
0.143161
0.134463
0.12694
0.120342
0.114396
0.108917
0.103924
0.0993467
0.0951278
0.0912444
0.0876342
0.0842512
0.0810563
0.078064
0.0751985
0.216012
0.196125
0.179484
0.165436
0.153538
0.14335
0.134613
0.12704
0.120354
0.11433
0.108791
0.103771
0.0991733
0.094949
0.0910625
0.0874642
0.0840929
0.0809121
0.0779356
0.0750843
0.216095
0.196265
0.179659
0.165631
0.153724
0.143536
0.134777
0.127162
0.12043
0.114353
0.108805
0.103757
0.099144
0.0949158
0.0910269
0.0874294
0.0840613
0.0808871
0.0779193
0.0750773
0.216173
0.196397
0.179824
0.165815
0.153909
0.143721
0.134952
0.127317
0.120564
0.114463
0.108899
0.103837
0.0992112
0.0949721
0.0910756
0.087474
0.0841001
0.0809226
0.0779532
0.0751099
0.216224
0.19648
0.17992
0.165913
0.153992
0.143793
0.135005
0.127369
0.120591
0.114481
0.108901
0.103832
0.0991949
0.0949669
0.0910551
0.0874175
0.084034
0.0808479
0.0778711
0.0750222
0.232914
0.206464
0.185831
0.166693
0.189748
0.307899
0.225841
0.201496
0.182131
0.166074
0.152525
0.143157
0.161969
0.391482
2.52848
3.99873
4.51874
4.69421
4.50393
4.01056
0.214486
0.193622
0.176481
0.162225
0.150909
0.144349
0.158865
0.235864
4.80801
2.71899
3.18322
2.72565
1.11304
1.03052
0.732312
0.214588
0.193792
0.176646
0.162438
0.151114
0.143844
0.149293
0.176219
0.255295
0.366462
1.33943
0.284023
0.236683
0.206972
0.185187
0.171655
0.159915
0.148289
0.214758
0.194051
0.17694
0.162717
0.151182
0.143137
0.142603
0.16163
0.191017
0.209811
0.214699
0.202781
0.165958
0.152337
0.140106
0.129726
0.121072
0.113663
0.10712
0.101312
0.214928
0.194325
0.177262
0.163025
0.151333
0.142499
0.13881
0.144923
0.152412
0.154444
0.150922
0.144487
0.135411
0.127182
0.119544
0.112729
0.106752
0.101347
0.0963702
0.0918203
0.215091
0.194589
0.177578
0.163345
0.151542
0.14226
0.136313
0.136111
0.137103
0.136535
0.132401
0.126834
0.120203
0.114104
0.108363
0.10307
0.0982507
0.093767
0.0895776
0.0856903
0.215241
0.194836
0.177879
0.163661
0.151797
0.142206
0.135047
0.131254
0.128714
0.125954
0.1217
0.116947
0.111539
0.106419
0.101566
0.0970294
0.0928428
0.0889041
0.0852017
0.0817335
0.215375
0.195055
0.178148
0.163952
0.152056
0.14228
0.134451
0.128883
0.124458
0.120349
0.115811
0.111113
0.106362
0.101543
0.0972361
0.0931655
0.0893613
0.0857478
0.0823403
0.0791288
0.215506
0.195275
0.178421
0.164247
0.152324
0.142419
0.13422
0.127755
0.12232
0.117411
0.112562
0.107767
0.103275
0.0988308
0.0947516
0.0908849
0.0872636
0.0838263
0.0805903
0.0775208
0.215622
0.19547
0.178666
0.164516
0.15258
0.142579
0.13417
0.127207
0.121235
0.115863
0.110775
0.105922
0.101437
0.0971196
0.0931628
0.0894223
0.0859174
0.082592
0.0794646
0.0764875
0.21573
0.195651
0.178891
0.164767
0.152827
0.142764
0.134221
0.126971
0.120693
0.11504
0.109785
0.104897
0.100371
0.0961211
0.0922221
0.088546
0.0851012
0.0818384
0.0787751
0.0758496
0.21583
0.195819
0.179102
0.165003
0.153071
0.14296
0.134326
0.126907
0.120437
0.114603
0.109227
0.104284
0.0997319
0.0955005
0.0916179
0.0879785
0.0845705
0.081348
0.0783264
0.0754367
0.215924
0.195977
0.179299
0.165227
0.153325
0.143161
0.134463
0.12694
0.120342
0.114395
0.108917
0.103925
0.099347
0.0951252
0.0912444
0.0876354
0.0842521
0.0810566
0.0780641
0.0751982
0.216012
0.196125
0.179484
0.165437
0.153538
0.143351
0.134613
0.127039
0.120353
0.11433
0.108791
0.103771
0.0991736
0.094948
0.0910631
0.087465
0.0840932
0.0809123
0.0779356
0.0750841
0.216095
0.196265
0.179659
0.165631
0.153725
0.143537
0.134777
0.127162
0.120429
0.114353
0.108805
0.103757
0.0991445
0.094915
0.0910275
0.0874301
0.0840616
0.0808872
0.0779192
0.0750771
0.216173
0.196397
0.179824
0.165815
0.153909
0.143721
0.134952
0.127316
0.120563
0.114463
0.108899
0.103837
0.0992117
0.0949712
0.0910761
0.0874745
0.0841003
0.0809226
0.0779531
0.0751097
0.216224
0.19648
0.17992
0.165913
0.153992
0.143793
0.135005
0.127369
0.120591
0.114482
0.108902
0.103832
0.0991954
0.0949683
0.0910566
0.0874178
0.0840335
0.080847
0.0778702
0.0750215
0.232914
0.206482
0.186141
0.167627
0.191595
0.313929
0.225841
0.201495
0.182131
0.166081
0.15244
0.142757
0.161068
0.408836
2.63783
3.90424
4.41768
4.71989
4.48662
3.9378
0.214485
0.19362
0.176479
0.162224
0.150899
0.144299
0.15861
0.237009
4.94513
2.57904
2.97783
2.7357
1.13615
1.04997
0.734804
0.214588
0.193792
0.176646
0.162438
0.151113
0.143833
0.149116
0.175477
0.252489
0.369933
1.42775
0.294572
0.240212
0.206691
0.183609
0.170293
0.159029
0.147677
0.214758
0.194051
0.17694
0.162718
0.151182
0.143135
0.142536
0.161091
0.189372
0.207357
0.21255
0.201567
0.165689
0.152321
0.140202
0.129841
0.121133
0.113672
0.107106
0.101284
0.214928
0.194326
0.177262
0.163025
0.151333
0.142499
0.138792
0.144751
0.152109
0.154159
0.150806
0.144456
0.135383
0.127207
0.119616
0.112796
0.106773
0.101339
0.096357
0.0918036
0.215091
0.194589
0.177578
0.163346
0.151543
0.142262
0.136312
0.136078
0.137052
0.136507
0.132418
0.12685
0.120199
0.114116
0.108386
0.103085
0.0982471
0.0937571
0.0895722
0.0856869
0.215241
0.194836
0.177879
0.163661
0.151798
0.142208
0.13505
0.131253
0.128713
0.125961
0.121722
0.116962
0.111542
0.106435
0.101584
0.0970359
0.0928355
0.0888944
0.0851967
0.0817305
0.215376
0.195057
0.178151
0.163953
0.152056
0.14228
0.134451
0.128883
0.12446
0.120351
0.115818
0.111121
0.106363
0.101545
0.0972388
0.0931644
0.0893561
0.0857442
0.0823407
0.0791299
0.215506
0.195275
0.178421
0.164247
0.152324
0.142419
0.13422
0.127755
0.12232
0.117409
0.112564
0.107766
0.103273
0.0988322
0.0947553
0.0908864
0.0872619
0.0838249
0.0805907
0.0775216
0.215622
0.19547
0.178666
0.164516
0.15258
0.142579
0.13417
0.127207
0.121235
0.115862
0.110776
0.105924
0.101436
0.0971186
0.0931623
0.0894215
0.085916
0.0825916
0.0794654
0.076488
0.21573
0.195651
0.178891
0.164767
0.152827
0.142765
0.134221
0.126971
0.120693
0.115039
0.109785
0.104898
0.100371
0.0961197
0.092222
0.0885467
0.0851016
0.081839
0.0787758
0.0758498
0.21583
0.195819
0.179102
0.165003
0.153071
0.14296
0.134326
0.126907
0.120437
0.114602
0.109227
0.104284
0.0997319
0.0954997
0.0916178
0.0879789