/*--------------------------------*- C++ -*----------------------------------*\
  =========                 |
  \\      /  F ield         | OpenFOAM: The Open Source CFD Toolbox
   \\    /   O peration     | Website:  https://openfoam.org
    \\  /    A nd           | Version:  10
     \\/     M anipulation  |
\*---------------------------------------------------------------------------*/
FoamFile
{
    format      ascii;
    class       volScalarField;
    location    "2000";
    object      nut;
}
// * * * * * * * * * * * * * * * * * * * * * * * * * * * * * * * * * * * * * //

dimensions      [0 2 -1 0 0 0 0];

internalField   nonuniform List<scalar> 
55398
(
0.133831
0.11488
0.0915339
0.0619525
0.0626783
0.0722655
0.134407
0.133464
0.13275
0.131599
0.126402
0.117567
0.0985519
0.108676
0.300152
0.681623
0.770174
0.837059
1.06729
1.16872
0.133905
0.133068
0.132441
0.132037
0.132025
0.131654
0.125399
0.121836
0.210206
0.658793
0.619044
0.59456
0.564852
0.489183
0.46396
0.133849
0.132988
0.132305
0.13187
0.131934
0.132983
0.13352
0.132175
0.113175
0.0564368
0.141292
0.140785
0.132794
0.132855
0.133176
0.135839
0.136353
0.140617
0.133818
0.132925
0.132191
0.131682
0.131587
0.132571
0.134857
0.139495
0.137354
0.124839
0.114963
0.119351
0.127747
0.134515
0.136061
0.136988
0.137359
0.137423
0.137238
0.136967
0.1338
0.132886
0.132115
0.131537
0.131289
0.131835
0.133989
0.138025
0.140782
0.140567
0.141346
0.142293
0.142308
0.142042
0.141653
0.141332
0.141018
0.140311
0.139746
0.13918
0.133789
0.132861
0.132064
0.131432
0.131063
0.131254
0.132545
0.135663
0.138205
0.139672
0.140596
0.14068
0.14038
0.13965
0.139001
0.138509
0.138065
0.137312
0.136721
0.136147
0.133782
0.132844
0.132029
0.13136
0.130903
0.130828
0.1315
0.133342
0.135148
0.136468
0.137045
0.137123
0.136837
0.136159
0.135574
0.135062
0.134629
0.133976
0.13346
0.132952
0.133773
0.132831
0.132003
0.131308
0.130787
0.130537
0.130768
0.131706
0.132745
0.133548
0.133843
0.133786
0.133455
0.132894
0.132403
0.131994
0.131616
0.1311
0.130669
0.130251
0.133774
0.132824
0.131984
0.131265
0.1307
0.130345
0.130302
0.13069
0.131171
0.131492
0.131528
0.131379
0.131064
0.130614
0.130211
0.129854
0.129519
0.129089
0.128719
0.128347
0.133772
0.132818
0.13197
0.131235
0.130636
0.130209
0.13
0.130055
0.130172
0.130188
0.130038
0.12979
0.129468
0.129057
0.128685
0.128347
0.128044
0.127673
0.127348
0.127005
0.133771
0.132814
0.131959
0.131212
0.130588
0.130112
0.129801
0.129654
0.129551
0.129383
0.129107
0.128771
0.128424
0.128061
0.127703
0.127383
0.12709
0.126753
0.126452
0.126118
0.13377
0.132811
0.131951
0.131195
0.130552
0.130039
0.129659
0.129395
0.12916
0.12887
0.128511
0.128127
0.127752
0.127384
0.127035
0.126716
0.126423
0.126106
0.12582
0.125496
0.13377
0.132809
0.131945
0.131182
0.130528
0.129985
0.12956
0.129221
0.128903
0.128542
0.128116
0.127692
0.127296
0.126923
0.126578
0.126263
0.125973
0.125669
0.125393
0.125077
0.13377
0.132808
0.131942
0.131172
0.130507
0.129947
0.129489
0.12911
0.128736
0.128328
0.127863
0.127415
0.127002
0.126626
0.126282
0.125967
0.125675
0.125377
0.125106
0.124795
0.13377
0.132807
0.131939
0.131166
0.130491
0.12992
0.12944
0.129029
0.128625
0.128187
0.127719
0.127259
0.126835
0.126454
0.12611
0.125792
0.1255
0.125205
0.124937
0.12463
0.133771
0.132808
0.131938
0.131161
0.130481
0.1299
0.129409
0.128978
0.128562
0.128111
0.127633
0.127168
0.126738
0.126352
0.126002
0.125681
0.125384
0.125086
0.124814
0.124505
0.133764
0.132792
0.131912
0.131123
0.130428
0.129831
0.129318
0.128876
0.128436
0.127976
0.127482
0.127008
0.126569
0.126172
0.125813
0.125478
0.125165
0.124854
0.124569
0.124249
0.134134
0.121254
0.103129
0.0688699
0.0564214
0.0644952
0.134406
0.133464
0.13277
0.131877
0.127734
0.119778
0.100118
0.0930692
0.414083
0.735492
0.778284
0.854369
0.99271
0.905594
0.133903
0.133066
0.132441
0.132041
0.132061
0.132077
0.127102
0.123859
0.158352
0.660632
0.670135
0.597487
0.448162
0.486235
0.433674
0.133848
0.132988
0.132303
0.131865
0.131932
0.133037
0.134253
0.132993
0.0952016
0.0590036
0.129573
0.12911
0.132034
0.133139
0.133587
0.13601
0.136998
0.139973
0.133818
0.132924
0.132189
0.131676
0.131578
0.132547
0.134945
0.139737
0.137631
0.126481
0.119315
0.119793
0.131158
0.133924
0.135848
0.136908
0.137443
0.137598
0.137472
0.137226
0.1338
0.132886
0.132114
0.131533
0.131282
0.131799
0.133926
0.137897
0.140787
0.14067
0.141776
0.142363
0.142289
0.141874
0.141455
0.141198
0.140924
0.140227
0.139602
0.138947
0.133789
0.132861
0.132064
0.131431
0.131058
0.131228
0.132451
0.135519
0.138055
0.139614
0.140536
0.140647
0.140367
0.139614
0.138976
0.138431
0.13798
0.137271
0.136598
0.13592
0.133782
0.132844
0.132028
0.131358
0.1309
0.130814
0.131424
0.133214
0.134996
0.136345
0.136941
0.137053
0.136805
0.136129
0.135544
0.135006
0.134561
0.133939
0.133362
0.132774
0.133774
0.13283
0.132002
0.131306
0.130785
0.130535
0.130754
0.131638
0.132645
0.133454
0.133753
0.133722
0.133408
0.132875
0.132394
0.131959
0.131576
0.131076
0.130607
0.130132
0.133774
0.132824
0.131984
0.131265
0.130699
0.130344
0.130298
0.130652
0.131107
0.131438
0.131472
0.131331
0.131033
0.130603
0.130204
0.129831
0.129492
0.129073
0.12868
0.128268
0.133772
0.132818
0.13197
0.131235
0.130635
0.130209
0.129999
0.130035
0.130137
0.130159
0.130005
0.129743
0.129434
0.129048
0.128683
0.128337
0.128028
0.127665
0.127326
0.126958
0.133771
0.132814
0.131959
0.131212
0.130588
0.13011
0.129797
0.129644
0.129538
0.129367
0.12909
0.128748
0.128403
0.128059
0.127695
0.127375
0.12708
0.126748
0.126438
0.12609
0.13377
0.132811
0.131951
0.131195
0.130552
0.130038
0.129657
0.12939
0.129153
0.128862
0.128502
0.128113
0.127739
0.127382
0.127035
0.126713
0.126418
0.126103
0.125812
0.12548
0.13377
0.132809
0.131945
0.131182
0.130528
0.129986
0.129559
0.129219
0.1289
0.128538
0.12811
0.127685
0.127292
0.126923
0.126579
0.126262
0.12597
0.125668
0.125389
0.125068
0.13377
0.132808
0.131942
0.131172
0.130507
0.129948
0.129489
0.129109
0.128734
0.128326
0.127861
0.127413
0.127
0.126625
0.126282
0.125966
0.125674
0.125376
0.125104
0.12479
0.13377
0.132807
0.131939
0.131166
0.130491
0.12992
0.12944
0.129029
0.128625
0.128186
0.127718
0.127258
0.126834
0.126454
0.126109
0.125792
0.125499
0.125205
0.124936
0.124628
0.133771
0.132808
0.131938
0.131161
0.130481
0.1299
0.129409
0.128979
0.128562
0.128111
0.127633
0.127167
0.126738
0.126352
0.126002
0.12568
0.125383
0.125085
0.124813
0.124503
0.133764
0.132792
0.131912
0.131123
0.130428
0.12983
0.129318
0.128875
0.128436
0.127975
0.127482
0.127008
0.126568
0.126172
0.125813
0.125477
0.125165
0.124854
0.124569
0.124249
0.134326
0.124547
0.107384
0.0777844
0.0534975
0.0605976
0.134407
0.133467
0.132777
0.131768
0.127435
0.12015
0.100677
0.104014
0.451973
0.774139
0.795237
0.778547
0.934556
0.888627
0.133903
0.133066
0.13244
0.13204
0.13206
0.13219
0.1271
0.12602
0.169621
0.651062
0.688865
0.614667
0.441754
0.464536
0.428351
0.133848
0.132988
0.132303
0.131865
0.131933
0.133046
0.13414
0.133767
0.0974086
0.0787411
0.111009
0.124984
0.12984
0.132509
0.133626
0.136106
0.137481
0.139725
0.133818
0.132924
0.13219
0.131677
0.131579
0.132541
0.134947
0.139826
0.137621
0.12598
0.118908
0.121039
0.131297
0.133719
0.13544
0.136659
0.137422
0.137679
0.137589
0.137333
0.1338
0.132886
0.132114
0.131533
0.131283
0.131792
0.133944
0.137934
0.140718
0.140528
0.141685
0.142371
0.142223
0.141708
0.141344
0.141103
0.14082
0.140154
0.139555
0.138935
0.133789
0.132861
0.132064
0.131431
0.131059
0.131223
0.132475
0.135534
0.138068
0.139595
0.140515
0.140671
0.140386
0.139549
0.138926
0.138401
0.137902
0.137163
0.136483
0.135888
0.133782
0.132844
0.132028
0.131358
0.1309
0.130813
0.131435
0.133218
0.135007
0.136339
0.136932
0.137052
0.136803
0.136083
0.135503
0.134989
0.134502
0.133852
0.133271
0.132747
0.133776
0.132831
0.132002
0.131305
0.130785
0.130536
0.130751
0.131642
0.132654
0.133452
0.133743
0.133715
0.133419
0.13285
0.132376
0.131951
0.131541
0.131021
0.13055
0.130112
0.133774
0.132824
0.131984
0.131265
0.130699
0.130344
0.130297
0.130654
0.131108
0.131437
0.131469
0.1313
0.13102
0.130581
0.13019
0.129825
0.12947
0.129038
0.128643
0.128252
0.133772
0.132818
0.13197
0.131235
0.130635
0.130209
0.129999
0.130036
0.130138
0.130159
0.130004
0.12973
0.129435
0.129036
0.128676
0.128336
0.128015
0.127644
0.127304
0.126949
0.133771
0.132814
0.131959
0.131212
0.130588
0.13011
0.129797
0.129645
0.129538
0.129367
0.129089
0.128744
0.128407
0.128041
0.127679
0.127369
0.12707
0.126734
0.126425
0.126085
0.13377
0.132811
0.131951
0.131195
0.130552
0.130038
0.129658
0.12939
0.129153
0.128862
0.128501
0.12811
0.127741
0.127372
0.127024
0.126708
0.126412
0.126095
0.125804
0.125477
0.13377
0.132809
0.131946
0.131182
0.130528
0.129986
0.129559
0.129219
0.1289
0.128539
0.12811
0.127684
0.127292
0.126924
0.126575
0.12626
0.125968
0.125663
0.125385
0.125066
0.13377
0.132808
0.131942
0.131172
0.130507
0.129948
0.129489
0.129109
0.128734
0.128327
0.12786
0.127412
0.127001
0.126625
0.126281
0.125965
0.125672
0.125374
0.125102
0.12479
0.13377
0.132807
0.131939
0.131166
0.130492
0.12992
0.12944
0.129029
0.128625
0.128186
0.127718
0.127257
0.126834
0.126454
0.126109
0.125791
0.125498
0.125204
0.124935
0.124628
0.133771
0.132808
0.131938
0.131161
0.130481
0.1299
0.129409
0.128978
0.128562
0.128111
0.127633
0.127167
0.126737
0.126352
0.126001
0.12568
0.125382
0.125084
0.124812
0.124503
0.133764
0.132792
0.131912
0.131123
0.130428
0.12983
0.129318
0.128876
0.128436
0.127975
0.127482
0.127008
0.126568
0.126172
0.125813
0.125477
0.125165
0.124854
0.124569
0.124249
0.1344
0.12755
0.110672
0.0841077
0.0505028
0.0588775
0.134408
0.133471
0.132785
0.131671
0.126796
0.119943
0.0999231
0.094086
0.454628
0.793376
0.824103
0.793497
0.949071
0.862723
0.133902
0.133066
0.13244
0.132038
0.132053
0.132261
0.127056
0.124141
0.155546
0.637108
0.706039
0.635661
0.444618
0.457578
0.42562
0.133848
0.132988
0.132303
0.131865
0.131933
0.133056
0.134059
0.133919
0.0928125
0.0831052
0.0994099
0.119954
0.126695
0.131012
0.133136
0.135981
0.137845
0.139695
0.133818
0.132924
0.13219
0.131677
0.13158
0.132539
0.134936
0.140051
0.138803
0.126849
0.118831
0.121614
0.131147
0.133138
0.134919
0.136317
0.137264
0.137619
0.137623
0.137401
0.1338
0.132886
0.132114
0.131534
0.131283
0.131787
0.133955
0.137997
0.140727
0.140432
0.141578
0.142334
0.142224
0.141713
0.141291
0.141017
0.140748
0.140172
0.139564
0.138941
0.133789
0.132861
0.132064
0.131432
0.131059
0.131219
0.132493
0.135556
0.138083
0.139576
0.140487
0.140678
0.140257
0.139426
0.138884
0.138366
0.137866
0.137188
0.136506
0.135885
0.133782
0.132844
0.132028
0.131358
0.1309
0.130812
0.131443
0.133226
0.135017
0.136336
0.136925
0.137059
0.13668
0.135972
0.135466
0.134964
0.134478
0.133872
0.133285
0.132742
0.133776
0.132831
0.132002
0.131304
0.130785
0.130536
0.13075
0.131645
0.132662
0.133453
0.133741
0.133707
0.133382
0.132804
0.132365
0.131942
0.131531
0.131036
0.13056
0.130107
0.133774
0.132824
0.131984
0.131265
0.130699
0.130344
0.130297
0.130656
0.13111
0.131439
0.131469
0.131297
0.131006
0.130554
0.130183
0.129819
0.129462
0.129046
0.128649
0.128248
0.133772
0.132818
0.13197
0.131235
0.130635
0.130209
0.129999
0.130037
0.130139
0.13016
0.130005
0.129724
0.129422
0.129019
0.128672
0.128335
0.128011
0.12765
0.127307
0.126946
0.133771
0.132814
0.131959
0.131212
0.130588
0.13011
0.129797
0.129646
0.129538
0.129368
0.129089
0.128742
0.1284
0.128027
0.127684
0.127367
0.127066
0.126737
0.126426
0.126083
0.13377
0.132811
0.131951
0.131195
0.130552
0.130038
0.129658
0.129391
0.129153
0.128862
0.128501
0.128109
0.127736
0.127364
0.127026
0.126708
0.12641
0.126096
0.125804
0.125476
0.13377
0.132809
0.131946
0.131182
0.130527
0.129986
0.12956
0.129219
0.1289
0.128539
0.128111
0.127683
0.127288
0.126916
0.12657
0.126258
0.125966
0.125664
0.125385
0.125065
0.13377
0.132808
0.131942
0.131173
0.130507
0.129948
0.129489
0.129109
0.128734
0.128327
0.127861
0.127412
0.126999
0.126621
0.126278
0.125964
0.125672
0.125375
0.125102
0.124789
0.13377
0.132807
0.131939
0.131166
0.130492
0.12992
0.12944
0.129029
0.128625
0.128186
0.127718
0.127257
0.126833
0.126452
0.126106
0.125791
0.125498
0.125204
0.124935
0.124628
0.133771
0.132808
0.131938
0.131161
0.130481
0.1299
0.129409
0.128978
0.128562
0.128111
0.127633
0.127167
0.126737
0.12635
0.125999
0.12568
0.125382
0.125084
0.124812
0.124503
0.133764
0.132792
0.131912
0.131123
0.130428
0.12983
0.129318
0.128876
0.128437
0.127976
0.127482
0.127008
0.126568
0.126171
0.125812
0.125476
0.125165
0.124854
0.124569
0.124249
0.134423
0.129747
0.114464
0.0896856
0.0486747
0.0568685
0.134407
0.133473
0.132792
0.131658
0.126258
0.119628
0.0992756
0.0877079
0.460161
0.803941
0.865672
0.806831
0.940786
0.84475
0.133902
0.133066
0.132439
0.132036
0.132042
0.1323
0.127
0.122329
0.155747
0.604551
0.713665
0.657209
0.44909
0.456203
0.423843
0.133848
0.132988
0.132303
0.131865
0.131932
0.133065
0.13401
0.133691
0.089857
0.0806675
0.104232
0.115779
0.123266
0.128873
0.132125
0.135597
0.138005
0.139717
0.133818
0.132924
0.13219
0.131677
0.131581
0.132537
0.134924
0.140302
0.140372
0.128804
0.120152
0.122099
0.131069
0.132784
0.134475
0.135941
0.137034
0.13751
0.137612
0.137439
0.1338
0.132886
0.132115
0.131534
0.131284
0.131783
0.133959
0.138077
0.140852
0.140479
0.141526
0.142286
0.142212
0.141725
0.14126
0.140944
0.140673
0.140162
0.139568
0.138945
0.133789
0.132861
0.132064
0.131432
0.13106
0.131216
0.132505
0.135583
0.138113
0.139576
0.140462
0.140659
0.14022
0.13951
0.138884
0.138341
0.137833
0.137196
0.136525
0.135889
0.133782
0.132844
0.132028
0.131358
0.130901
0.130811
0.131449
0.133235
0.135027
0.136337
0.136918
0.13706
0.136652
0.136028
0.135458
0.134945
0.134455
0.13388
0.133298
0.132743
0.133777
0.132831
0.132002
0.131304
0.130785
0.130536
0.13075
0.131648
0.132667
0.133456
0.133741
0.133701
0.133373
0.132817
0.132362
0.131935
0.131521
0.131044
0.13057
0.130107
0.133774
0.132824
0.131984
0.131265
0.130699
0.130345
0.130297
0.130657
0.131112
0.13144
0.13147
0.131294
0.131007
0.130565
0.130181
0.129814
0.129456
0.129051
0.128654
0.128246
0.133772
0.132818
0.13197
0.131235
0.130635
0.130209
0.129999
0.130038
0.13014
0.130161
0.130005
0.129721
0.129418
0.129023
0.128671
0.128333
0.128009
0.127653
0.127311
0.126945
0.133771
0.132814
0.131959
0.131212
0.130588
0.13011
0.129797
0.129646
0.129538
0.129368
0.129089
0.128741
0.128398
0.128027
0.127687
0.127367
0.127064
0.126738
0.126427
0.126082
0.13377
0.132811
0.131951
0.131195
0.130552
0.130038
0.129658
0.129391
0.129153
0.128863
0.128502
0.128108
0.127735
0.127364
0.127027
0.126708
0.126409
0.126097
0.125805
0.125475
0.13377
0.132809
0.131946
0.131182
0.130527
0.129986
0.12956
0.12922
0.1289
0.128539
0.128111
0.127683
0.127286
0.126914
0.126572
0.126258
0.125966
0.125664
0.125385
0.125065
0.13377
0.132808
0.131942
0.131173
0.130507
0.129948
0.129489
0.129109
0.128734
0.128327
0.127861
0.127412
0.126998
0.12662
0.126278
0.125964
0.125672
0.125375
0.125102
0.124789
0.13377
0.132807
0.131939
0.131166
0.130492
0.12992
0.12944
0.129029
0.128625
0.128186
0.127718
0.127257
0.126833
0.126451
0.126106
0.12579
0.125498
0.125204
0.124935
0.124628
0.133771
0.132808
0.131938
0.131161
0.130482
0.1299
0.129409
0.128978
0.128562
0.128111
0.127633
0.127167
0.126737
0.126349
0.125998
0.125679
0.125382
0.125084
0.124812
0.124503
0.133764
0.132792
0.131912
0.131123
0.130428
0.12983
0.129318
0.128876
0.128437
0.127976
0.127482
0.127008
0.126568
0.126172
0.125812
0.125476
0.125165
0.124854
0.124569
0.124249
0.134429
0.131014
0.118195
0.0944962
0.0478334
0.0552183
0.134407
0.133475
0.132799
0.131702
0.125942
0.119273
0.0986757
0.087667
0.467049
0.8086
0.89817
0.824967
0.92574
0.838122
0.133902
0.133066
0.132439
0.132033
0.132028
0.132314
0.126863
0.120661
0.167254
0.558561
0.700271
0.677496
0.455101
0.458021
0.42296
0.133848
0.132988
0.132303
0.131865
0.131931
0.133071
0.133965
0.133298
0.0860412
0.0814773
0.114701
0.113522
0.120326
0.126492
0.130694
0.134907
0.137917
0.13969
0.133818
0.132924
0.13219
0.131677
0.131581
0.132537
0.134909
0.140463
0.141534
0.130941
0.122088
0.122981
0.131125
0.132609
0.134143
0.135582
0.136761
0.137356
0.137558
0.137444
0.1338
0.132886
0.132115
0.131534
0.131285
0.13178
0.133959
0.13815
0.141052
0.14068
0.141576
0.142266
0.142194
0.14174
0.141248
0.140888
0.140601
0.140133
0.139561
0.138944
0.133789
0.132861
0.132064
0.131432
0.13106
0.131214
0.132512
0.13561
0.138162
0.139606
0.140455
0.14063
0.140181
0.139546
0.138895
0.138327
0.137804
0.137191
0.136536
0.135894
0.133782
0.132844
0.132028
0.131358
0.130901
0.13081
0.131453
0.133244
0.13504
0.136344
0.136916
0.137058
0.136633
0.136056
0.135461
0.134931
0.134434
0.133878
0.133306
0.132745
0.133777
0.132832
0.132002
0.131304
0.130784
0.130535
0.13075
0.131649
0.132672
0.133458
0.133743
0.133698
0.133364
0.132822
0.132362
0.13193
0.131513
0.131047
0.130577
0.130109
0.133774
0.132824
0.131984
0.131265
0.130699
0.130345
0.130296
0.130658
0.131114
0.131441
0.131471
0.131292
0.131007
0.130572
0.130182
0.129811
0.12945
0.129052
0.128659
0.128247
0.133772
0.132818
0.13197
0.131235
0.130636
0.130209
0.129999
0.130039
0.130141
0.130162
0.130006
0.129718
0.129415
0.129024
0.128671
0.128332
0.128006
0.127655
0.127314
0.126945
0.133771
0.132814
0.131959
0.131212
0.130588
0.13011
0.129797
0.129647
0.129539
0.129368
0.12909
0.12874
0.128397
0.128027
0.127688
0.127367
0.127062
0.126738
0.126428
0.126082
0.13377
0.132811
0.131951
0.131195
0.130552
0.130038
0.129658
0.129391
0.129153
0.128863
0.128502
0.128107
0.127733
0.127363
0.127027
0.126708
0.126408
0.126097
0.125806
0.125475
0.13377
0.132809
0.131946
0.131182
0.130527
0.129986
0.12956
0.12922
0.1289
0.128539
0.128111
0.127683
0.127285
0.126912
0.126573
0.126259
0.125965
0.125665
0.125385
0.125065
0.13377
0.132808
0.131942
0.131173
0.130507
0.129948
0.129489
0.129109
0.128734
0.128327
0.127861
0.127412
0.126998
0.126619
0.126278
0.125964
0.125672
0.125375
0.125102
0.124789
0.13377
0.132807
0.131939
0.131166
0.130492
0.12992
0.12944
0.129029
0.128625
0.128187
0.127718
0.127257
0.126833
0.12645
0.126106
0.12579
0.125498
0.125204
0.124935
0.124628
0.133771
0.132808
0.131938
0.131161
0.130482
0.1299
0.129409
0.128978
0.128562
0.128111
0.127633
0.127167
0.126737
0.126348
0.125998
0.125679
0.125382
0.125084
0.124812
0.124503
0.133764
0.132792
0.131912
0.131123
0.130428
0.12983
0.129318
0.128876
0.128437
0.127976
0.127482
0.127008
0.126568
0.126172
0.125812
0.125476
0.125164
0.124853
0.124569
0.124249
0.134431
0.131635
0.121321
0.0987269
0.0476074
0.0543604
0.134407
0.133477
0.132805
0.131771
0.125865
0.118977
0.0981487
0.0903161
0.478178
0.809334
0.944023
0.840896
0.921058
0.838157
0.133902
0.133066
0.132439
0.132031
0.132013
0.132308
0.126655
0.118689
0.187703
0.508808
0.68642
0.694075
0.462307
0.462133
0.423011
0.133848
0.132988
0.132303
0.131865
0.131929
0.133075
0.133908
0.132781
0.0824299
0.0829473
0.123659
0.113225
0.118376
0.124286
0.129037
0.133958
0.137586
0.139556
0.133818
0.132924
0.13219
0.131677
0.131582
0.132536
0.134891
0.140493
0.142033
0.132715
0.124049
0.124267
0.131374
0.132604
0.13394
0.135279
0.136479
0.137167
0.137466
0.137417
0.1338
0.132886
0.132115
0.131534
0.131285
0.131778
0.133956
0.138197
0.141263
0.140984
0.141738
0.142305
0.142187
0.141755
0.141251
0.140851
0.140538
0.140092
0.139544
0.138937
0.133789
0.132861
0.132064
0.131432
0.131061
0.131212
0.132514
0.135632
0.138221
0.139667
0.140474
0.140609
0.140146
0.139558
0.138906
0.13832
0.137781
0.13718
0.13654
0.135898
0.133782
0.132844
0.132028
0.131358
0.130901
0.130809
0.131455
0.133252
0.135055
0.136356
0.136919
0.137058
0.136622
0.136071
0.135468
0.134923
0.134417
0.133871
0.133309
0.132746
0.133777
0.132832
0.132002
0.131304
0.130784
0.130535
0.130749
0.131651
0.132676
0.133461
0.133746
0.133696
0.133356
0.132825
0.132363
0.131926
0.131506
0.131047
0.130582
0.130111
0.133774
0.132824
0.131984
0.131265
0.130699
0.130345
0.130296
0.130658
0.131114
0.131441
0.131473
0.131291
0.131006
0.130576
0.130185
0.129809
0.129445
0.129052
0.128662
0.128248
0.133772
0.132818
0.13197
0.131235
0.130636
0.130209
0.129999
0.130039
0.130142
0.130162
0.130008
0.129717
0.129412
0.129023
0.128671
0.128331
0.128004
0.127655
0.127316
0.126946
0.133771
0.132814
0.131959
0.131212
0.130588
0.13011
0.129797
0.129647
0.129539
0.129368
0.12909
0.12874
0.128396
0.128026
0.12769
0.127367
0.12706
0.126738
0.126429
0.126082
0.13377
0.132811
0.131951
0.131195
0.130552
0.130038
0.129658
0.129391
0.129153
0.128863
0.128502
0.128107
0.127733
0.127362
0.127028
0.126708
0.126408
0.126098
0.125806
0.125475
0.13377
0.132809
0.131946
0.131182
0.130527
0.129986
0.12956
0.12922
0.1289
0.128539
0.128112
0.127683
0.127284
0.12691
0.126574
0.126259
0.125965
0.125665
0.125386
0.125065
0.13377
0.132808
0.131942
0.131173
0.130507
0.129948
0.129489
0.129109
0.128734
0.128327
0.127861
0.127412
0.126998
0.126618
0.126279
0.125964
0.125671
0.125375
0.125103
0.124789
0.13377
0.132807
0.131939
0.131166
0.130492
0.12992
0.12944
0.129029
0.128625
0.128187
0.127718
0.127257
0.126833
0.12645
0.126106
0.12579
0.125497
0.125204
0.124935
0.124628
0.133771
0.132808
0.131938
0.131161
0.130482
0.1299
0.129409
0.128978
0.128562
0.128112
0.127633
0.127167
0.126737
0.126347
0.125999
0.125679
0.125382
0.125084
0.124812
0.124503
0.133764
0.132792
0.131912
0.131123
0.130428
0.12983
0.129318
0.128876
0.128437
0.127976
0.127482
0.127008
0.126568
0.126172
0.125812
0.125476
0.125164
0.124853
0.124568
0.124249
0.134431
0.131907
0.123593
0.102383
0.0477831
0.0542865
0.134407
0.133477
0.13281
0.131849
0.125976
0.11882
0.0977277
0.0912853
0.496174
0.807622
0.969927
0.858375
0.944287
0.840321
0.133902
0.133066
0.132439
0.13203
0.132001
0.132292
0.126431
0.116612
0.2135
0.46415
0.676566
0.704343
0.469937
0.467816
0.424049
0.133848
0.132988
0.132303
0.131865
0.131928
0.133075
0.133842
0.132133
0.0799755
0.0825559
0.133625
0.114661
0.117665
0.12261
0.127393
0.132855
0.137054
0.139292
0.133818
0.132924
0.13219
0.131677
0.131582
0.132536
0.134869
0.140391
0.141936
0.13378
0.125782
0.12579
0.131852
0.132779
0.133881
0.135061
0.136219
0.136961
0.137344
0.13736
0.1338
0.132886
0.132115
0.131534
0.131286
0.131776
0.133949
0.138204
0.141421
0.141311
0.141985
0.142414
0.142209
0.141778
0.141267
0.140832
0.140487
0.140048
0.139519
0.138923
0.133789
0.132861
0.132064
0.131432
0.131061
0.131211
0.132514
0.135646
0.138277
0.139747
0.140518
0.140607
0.140122
0.139559
0.138913
0.138316
0.137763
0.137166
0.136538
0.135899
0.133782
0.132844
0.132028
0.131358
0.130901
0.130808
0.131456
0.133259
0.135071
0.136374
0.136931
0.137061
0.136616
0.136082
0.135476
0.134919
0.134403
0.133861
0.133308
0.132747
0.133777
0.132832
0.132002
0.131304
0.130784
0.130535
0.130749
0.131652
0.13268
0.133464
0.133751
0.133698
0.133351
0.132825
0.132364
0.131924
0.1315
0.131045
0.130585
0.130114
0.133774
0.132824
0.131984
0.131265
0.130699
0.130345
0.130296
0.130658
0.131115
0.131442
0.131475
0.13129
0.131005
0.130579
0.130188
0.129808
0.129442
0.12905
0.128663
0.128249
0.133772
0.132818
0.13197
0.131235
0.130636
0.130209
0.129998
0.130039
0.130142
0.130162
0.130009
0.129717
0.12941
0.129023
0.12867
0.12833
0.128002
0.127655
0.127317
0.126947
0.133771
0.132814
0.131959
0.131212
0.130588
0.130111
0.129797
0.129647
0.129538
0.129368
0.129091
0.12874
0.128395
0.128026
0.12769
0.127367
0.127059
0.126737
0.126429
0.126082
0.13377
0.132811
0.131951
0.131195
0.130552
0.130038
0.129658
0.129391
0.129153
0.128863
0.128503
0.128107
0.127732
0.127361
0.127028
0.126709
0.126408
0.126098
0.125807
0.125475
0.13377
0.132809
0.131946
0.131182
0.130527
0.129986
0.129559
0.12922
0.1289
0.128539
0.128112
0.127683
0.127284
0.126909
0.126574
0.126259
0.125965
0.125665
0.125386
0.125065
0.13377
0.132808
0.131942
0.131173
0.130507
0.129948
0.129489
0.129109
0.128734
0.128327
0.127861
0.127413
0.126997
0.126618
0.126279
0.125964
0.125671
0.125375
0.125103
0.124789
0.13377
0.132807
0.131939
0.131166
0.130492
0.12992
0.12944
0.129028
0.128625
0.128187
0.127718
0.127257
0.126833
0.12645
0.126107
0.12579
0.125497
0.125204
0.124935
0.124628
0.133771
0.132808
0.131938
0.131161
0.130482
0.1299
0.129409
0.128978
0.128562
0.128112
0.127633
0.127167
0.126737
0.126347
0.125999
0.125679
0.125381
0.125084
0.124813
0.124503
0.133764
0.132792
0.131912
0.131123
0.130428
0.12983
0.129318
0.128876
0.128437
0.127976
0.127482
0.127008
0.126568
0.126172
0.125812
0.125476
0.125164
0.124853
0.124568
0.124249
0.134431
0.132017
0.125049
0.105404
0.0482245
0.0547966
0.134407
0.133477
0.132815
0.131922
0.1262
0.118832
0.0974584
0.0919067
0.51756
0.806374
0.979226
0.875199
0.975494
0.843371
0.133902
0.133066
0.132439
0.132031
0.131994
0.132274
0.126249
0.115025
0.242201
0.430464
0.64422
0.706675
0.477005
0.474234
0.42602
0.133848
0.132988
0.132303
0.131865
0.131926
0.133073
0.133774
0.131435
0.0786391
0.0811715
0.144929
0.117555
0.118258
0.121723
0.126006
0.131736
0.136392
0.138909
0.133818
0.132924
0.13219
0.131677
0.131582
0.132535
0.134847
0.140182
0.141406
0.133989
0.127022
0.127326
0.132533
0.133136
0.133976
0.134951
0.136009
0.136758
0.137203
0.137278
0.1338
0.132886
0.132115
0.131534
0.131286
0.131775
0.133941
0.138172
0.14149
0.14158
0.142261
0.142583
0.14227
0.141815
0.141296
0.140831
0.140451
0.140006
0.13949
0.138904
0.133789
0.132861
0.132064
0.131432
0.131062
0.13121
0.132513
0.13565
0.138319
0.13983
0.14058
0.140627
0.140115
0.139559
0.138918
0.138313
0.137748
0.137151
0.136533
0.135897
0.133782
0.132844
0.132028
0.131358
0.130901
0.130807
0.131455
0.133263
0.135085
0.136395
0.136948
0.137067
0.136614
0.13609
0.135485
0.134918
0.134392
0.133851
0.133305
0.132746
0.133777
0.132832
0.132002
0.131304
0.130784
0.130534
0.130748
0.131653
0.132684
0.133467
0.133757
0.133702
0.133349
0.132824
0.132364
0.131921
0.131495
0.131042
0.130587
0.130116
0.133774
0.132824
0.131984
0.131265
0.130699
0.130345
0.130296
0.130658
0.131116
0.131441
0.131477
0.13129
0.131004
0.130582
0.130191
0.129808
0.129438
0.129048
0.128664
0.128251
0.133772
0.132818
0.13197
0.131235
0.130636
0.130209
0.129998
0.130039
0.130142
0.130162
0.13001
0.129717
0.129409
0.129022
0.12867
0.128329
0.128
0.127654
0.127318
0.126948
0.133771
0.132814
0.131959
0.131212
0.130588
0.130111
0.129797
0.129647
0.129538
0.129367
0.129092
0.12874
0.128394
0.128025
0.127691
0.127368
0.127059
0.126737
0.12643
0.126082
0.13377
0.132811
0.131951
0.131195
0.130552
0.130038
0.129658
0.129391
0.129153
0.128862
0.128503
0.128107
0.127732
0.127361
0.127028
0.126709
0.126407
0.126098
0.125807
0.125475
0.13377
0.132809
0.131946
0.131182
0.130527
0.129986
0.129559
0.12922
0.1289
0.128539
0.128112
0.127683
0.127283
0.126909
0.126574
0.126259
0.125964
0.125665
0.125386
0.125065
0.13377
0.132808
0.131942
0.131173
0.130508
0.129948
0.129489
0.129109
0.128734
0.128327
0.127861
0.127413
0.126997
0.126618
0.126278
0.125964
0.125671
0.125375
0.125103
0.124789
0.13377
0.132807
0.131939
0.131166
0.130492
0.12992
0.12944
0.129028
0.128625
0.128187
0.127719
0.127257
0.126833
0.126449
0.126107
0.12579
0.125497
0.125204
0.124935
0.124628
0.133771
0.132808
0.131938
0.131161
0.130482
0.1299
0.129409
0.128978
0.128562
0.128112
0.127633
0.127167
0.126737
0.126347
0.125999
0.125679
0.125381
0.125084
0.124812
0.124503
0.133764
0.132792
0.131912
0.131123
0.130428
0.12983
0.129318
0.128875
0.128437
0.127976
0.127482
0.127008
0.126568
0.126172
0.125812
0.125476
0.125164
0.124853
0.124568
0.124249
0.134431
0.132058
0.125887
0.107754
0.0488293
0.0555954
0.134407
0.133478
0.132818
0.131987
0.126474
0.119002
0.0973849
0.0935751
0.540939
0.808768
0.98565
0.897318
1.00774
0.848955
0.133902
0.133065
0.132439
0.132032
0.131991
0.132262
0.126144
0.114268
0.272822
0.410971
0.604445
0.698959
0.482273
0.480373
0.428588
0.133848
0.132988
0.132303
0.131866
0.131925
0.13307
0.133717
0.13083
0.0782526
0.0802028
0.152455
0.121172
0.11992
0.121696
0.125064
0.130742
0.135687
0.138441
0.133818
0.132924
0.13219
0.131677
0.131582
0.132534
0.134825
0.139915
0.140635
0.133473
0.127537
0.128619
0.133328
0.133646
0.134221
0.134963
0.135871
0.136579
0.137055
0.13718
0.1338
0.132886
0.132115
0.131533
0.131287
0.131774
0.133933
0.138105
0.141461
0.141736
0.142505
0.14278
0.142367
0.141873
0.141339
0.140847
0.14043
0.139971
0.13946
0.138881
0.133789
0.132861
0.132064
0.131432
0.131062
0.131209
0.13251
0.135641
0.138337
0.139897
0.140646
0.140664
0.140123
0.139564
0.138924
0.138312
0.137736
0.137137
0.136525
0.135893
0.133782
0.132844
0.132028
0.131358
0.130902
0.130807
0.131455
0.133264
0.135096
0.136414
0.136969
0.137078
0.136616
0.136098
0.135495
0.134921
0.134385
0.133842
0.1333
0.132743
0.133777
0.132832
0.132003
0.131304
0.130784
0.130534
0.130747
0.131653
0.132687
0.133471
0.133762
0.133708
0.13335
0.132824
0.132365
0.13192
0.13149
0.131039
0.130588
0.130117
0.133774
0.132824
0.131984
0.131265
0.130699
0.130345
0.130295
0.130658
0.131116
0.131441
0.131478
0.13129
0.131004
0.130583
0.130193
0.129809
0.129436
0.129046
0.128664
0.128252
0.133772
0.132818
0.13197
0.131235
0.130636
0.130209
0.129998
0.130039
0.130142
0.130161
0.130011
0.129718
0.129408
0.129021
0.12867
0.128328
0.127999
0.127653
0.127319
0.126949
0.133771
0.132814
0.131959
0.131212
0.130588
0.130111
0.129797
0.129647
0.129538
0.129366
0.129092
0.128741
0.128394
0.128025
0.127691
0.127368
0.127058
0.126736
0.12643
0.126082
0.13377
0.132811
0.131951
0.131195
0.130552
0.130038
0.129658
0.129391
0.129153
0.128862
0.128503
0.128108
0.127731
0.12736
0.127027
0.126709
0.126407
0.126098
0.125807
0.125475
0.13377
0.132809
0.131946
0.131182
0.130527
0.129986
0.129559
0.12922
0.1289
0.128539
0.128112
0.127683
0.127283
0.126908
0.126574
0.126259
0.125964
0.125664
0.125386
0.125065
0.13377
0.132808
0.131942
0.131173
0.130508
0.129948
0.129489
0.129109
0.128734
0.128327
0.127862
0.127413
0.126998
0.126617
0.126278
0.125964
0.125671
0.125375
0.125103
0.124789
0.13377
0.132807
0.131939
0.131166
0.130492
0.12992
0.12944
0.129029
0.128625
0.128187
0.127719
0.127258
0.126833
0.126449
0.126107
0.125791
0.125497
0.125203
0.124935
0.124628
0.133771
0.132808
0.131938
0.131161
0.130482