/*--------------------------------*- C++ -*----------------------------------*\
  =========                 |
  \\      /  F ield         | OpenFOAM: The Open Source CFD Toolbox
   \\    /   O peration     | Website:  https://openfoam.org
    \\  /    A nd           | Version:  10
     \\/     M anipulation  |
\*---------------------------------------------------------------------------*/
FoamFile
{
    format      ascii;
    class       volScalarField;
    location    "2000";
    object      omega;
}
// * * * * * * * * * * * * * * * * * * * * * * * * * * * * * * * * * * * * * //

dimensions      [0 0 -1 0 0 0 0];

internalField   nonuniform List<scalar> 
55398
(
1.74012
1.81446
2.16032
3.88716
5.76358
9.55199
1.6803
1.50974
1.37185
1.26408
1.21251
1.23505
2.0442
5.91304
9.17177
7.11651
5.65543
4.99493
4.2343
3.65195
1.60212
1.45572
1.33269
1.22893
1.14322
1.0982
1.32744
2.32742
8.82407
6.20677
4.69281
3.58943
2.92355
2.3505
1.92041
1.60313
1.45724
1.33512
1.23181
1.14522
1.08189
1.13254
1.39759
2.53317
11.7975
8.44529
3.74696
2.02976
1.71409
1.50985
1.33725
1.21015
1.11142
1.60475
1.45987
1.33848
1.23567
1.14894
1.07986
1.06036
1.1772
1.46742
1.78633
2.08679
1.78309
1.40185
1.11584
1.01909
0.947072
0.891324
0.833462
0.788356
0.748034
1.60625
1.46236
1.34168
1.23936
1.15268
1.08096
1.03657
1.05602
1.08602
1.09886
1.08315
1.0126
0.95442
0.898199
0.844935
0.800884
0.763345
0.725978
0.693903
0.664911
1.60759
1.46461
1.34459
1.24244
1.15641
1.08318
1.02851
1.00501
0.993241
0.97793
0.943679
0.901994
0.860223
0.81743
0.779754
0.745943
0.715049
0.684697
0.657334
0.631944
1.6088
1.46665
1.34723
1.2459
1.1594
1.08644
1.02738
0.985405
0.953514
0.924107
0.889377
0.853554
0.817953
0.782162
0.750048
0.719901
0.691852
0.664757
0.639748
0.616412
1.60923
1.46821
1.34965
1.24902
1.16277
1.08982
1.02817
0.97889
0.938249
0.902052
0.866276
0.831662
0.797774
0.765022
0.734801
0.706639
0.679999
0.65457
0.630694
0.608512
1.61096
1.47018
1.3518
1.25123
1.16545
1.09246
1.03013
0.977595
0.932842
0.893316
0.85631
0.821498
0.788521
0.756989
0.727811
0.700311
0.674372
0.649713
0.626514
0.604647
1.61186
1.47172
1.35379
1.25355
1.16797
1.09486
1.03193
0.977968
0.931347
0.890116
0.852175
0.816753
0.784097
0.753002
0.724123
0.696849
0.671358
0.647091
0.624233
0.602613
1.61268
1.47313
1.35561
1.25568
1.17028
1.09711
1.03382
0.979147
0.931613
0.889184
0.850412
0.814839
0.781935
0.75125
0.722186
0.695212
0.669821
0.645814
0.623161
0.601666
1.61344
1.47443
1.35729
1.25765
1.17247
1.09924
1.03578
0.98062
0.932473
0.88924
0.849955
0.814037
0.780915
0.750107
0.72133
0.694398
0.669059
0.645178
0.622649
0.601246
1.61414
1.47564
1.35884
1.25948
1.17477
1.10112
1.0376
0.982175
0.933493
0.8899
0.850141
0.813852
0.780651
0.749762
0.720959
0.694147
0.668871
0.645082
0.622638
0.601289
1.61479
1.47676
1.36029
1.26117
1.17634
1.10302
1.0394
0.983822
0.934798
0.890861
0.850818
0.814441
0.780941
0.749997
0.721204
0.694412
0.66916
0.64541
0.623007
0.601688
1.61541
1.47782
1.36164
1.26273
1.17786
1.10478
1.04113
0.985443
0.936209
0.892025
0.851879
0.815322
0.781709
0.750706
0.721932
0.695058
0.669817
0.646079
0.623712
0.60241
1.61599
1.47881
1.36291
1.26418
1.17951
1.10633
1.04277
0.987062
0.937734
0.89343
0.853192
0.816531
0.782826
0.751757
0.72291
0.696028
0.670748
0.646992
0.624594
0.603274
1.61646
1.47961
1.36391
1.26531
1.18066
1.10753
1.04396
0.988295
0.938884
0.894532
0.854227
0.817518
0.783738
0.752623
0.723805
0.69682
0.671445
0.647608
0.625154
0.603785
1.73541
1.70393
1.83878
2.91768
6.49931
7.46421
1.68025
1.50968
1.37153
1.26055
1.20015
1.20934
1.89957
5.2488
7.10336
6.62567
5.6559
5.15329
4.40013
3.70036
1.60191
1.45544
1.3328
1.22891
1.14298
1.09443
1.29834
2.28909
9.21172
6.0083
4.60119
3.51877
2.36817
2.32334
1.78279
1.60316
1.45724
1.33516
1.23192
1.14539
1.08133
1.11894
1.37779
2.99509
8.25672
8.24245
2.59121
2.01349
1.69727
1.48813
1.31249
1.18268
1.07603
1.60479
1.45988
1.33852
1.23578
1.14906
1.07985
1.05607
1.1653
1.41363
1.70546
1.88181
1.76704
1.27674
1.12514
1.01529
0.942776
0.886231
0.828571
0.78198
0.740175
1.60628
1.46237
1.34172
1.23946
1.1528
1.08108
1.03544
1.05019
1.07801
1.09298
1.06287
1.01065
0.954666
0.895642
0.842072
0.799228
0.761763
0.724375
0.691733
0.661952
1.60763
1.46462
1.34462
1.24264
1.15641
1.08348
1.02842
1.00317
0.989756
0.974506
0.940826
0.901051
0.860126
0.817172
0.779668
0.745384
0.714375
0.684391
0.656544
0.630754
1.60883
1.46665
1.34726
1.24595
1.15958
1.08629
1.02767
0.98501
0.95231
0.922648
0.888132
0.852934
0.817755
0.782081
0.74985
0.719605
0.691533
0.664576
0.639416
0.615828
1.60948
1.46819
1.34958
1.24895
1.16288
1.08995
1.02818
0.978982
0.937987
0.901561
0.865748
0.831338
0.797511
0.764922
0.734767
0.706468
0.679858
0.65448
0.630584
0.608192
1.61095
1.47019
1.35182
1.25129
1.16553
1.09258
1.03005
0.977863
0.932987
0.893216
0.856119
0.821334
0.788361
0.756938
0.727762
0.700215
0.674281
0.649646
0.626439
0.604478
1.61185
1.47173
1.35381
1.2536
1.16803
1.09507
1.03196
0.978208
0.931577
0.890122
0.852094
0.816607
0.783964
0.752966
0.724093
0.696826
0.671277
0.647046
0.6242
0.602524
1.61268
1.47314
1.35562
1.25572
1.17033
1.09715
1.03412
0.979471
0.931731
0.889228
0.85042
0.814786
0.781784
0.751352
0.722099
0.695148
0.669766
0.645772
0.62314
0.601612
1.61343
1.47443
1.3573
1.25768
1.17251
1.09929
1.03604
0.980905
0.932555
0.889313
0.849978
0.814006
0.780813
0.750074
0.721357
0.694362
0.66903
0.645151
0.622642
0.60122
1.61414
1.47564
1.35885
1.2595
1.1748
1.10126
1.03783
0.982413
0.933586
0.889944
0.850165
0.813788
0.780611
0.749758
0.720971
0.694136
0.668856
0.645061
0.622638
0.60128
1.61479
1.47676
1.3603
1.26118
1.17637
1.10319
1.03961
0.984023
0.93488
0.8909
0.850843
0.814437
0.780916
0.749995
0.721208
0.6944
0.669145
0.645391
0.62301
0.601689
1.6154
1.47782
1.36165
1.26274
1.17791
1.10486
1.04128
0.985591
0.936273
0.892057
0.851901
0.815322
0.781688
0.750705
0.721926
0.695059
0.669803
0.646063
0.623712
0.602413
1.61598
1.47881
1.36291
1.26418
1.17951
1.10641
1.04285
0.98715
0.937775
0.893451
0.853207
0.81653
0.782807
0.751756
0.722917
0.696015
0.670731
0.646972
0.624594
0.603276
1.61645
1.47961
1.36391
1.2653
1.18065
1.10755
1.04399
0.988329
0.938903
0.89454
0.854233
0.817516
0.783721
0.752616
0.723803
0.69679
0.671432
0.647599
0.625159
0.603794
1.73329
1.65372
1.73535
2.34647
5.0127
6.55004
1.68027
1.50968
1.37156
1.26138
1.20456
1.20698
1.79753
4.4843
6.50428
6.31531
5.55999
4.86564
4.45098
3.72876
1.6019
1.45533
1.33276
1.22887
1.14302
1.09323
1.29193
2.17732
11.1827
6.01459
4.62372
3.52239
2.30988
2.24288
1.77075
1.60318
1.45722
1.33517
1.23189
1.14541
1.08131
1.12159
1.37112
2.49771
5.11464
7.39283
2.53745
2.04798
1.70804
1.47514
1.29547
1.17218
1.07179
1.60481
1.45986
1.33853
1.23576
1.14902
1.07994
1.05712
1.16557
1.42989
1.71571
1.87152
1.72259
1.26361
1.1209
1.01891
0.943122
0.882598
0.825151
0.779377
0.73896
1.60631
1.46235
1.34172
1.23944
1.15276
1.08121
1.03569
1.05081
1.08099
1.09546
1.06299
1.01155
0.951103
0.891347
0.841465
0.798681
0.760454
0.723226
0.690883
0.661532
1.60765
1.46461
1.34463
1.2427
1.15632
1.08375
1.02839
1.00335
0.990551
0.97521
0.940729
0.901144
0.86059
0.816369
0.779197
0.745192
0.713845
0.683705
0.655835
0.630573
1.60885
1.46664
1.34726
1.24593
1.1596
1.08658
1.02742
0.985
0.952485
0.922799
0.888098
0.85285
0.817728
0.781861
0.74959
0.719488
0.69129
0.66423
0.639102
0.615754
1.60965
1.4682
1.34953
1.24883
1.16284
1.08997
1.02826
0.978971
0.937974
0.901595
0.865702
0.831209
0.797593
0.764805
0.734672
0.706406
0.679761
0.65432
0.630462
0.608148
1.61096
1.47018
1.35183
1.25128
1.16551
1.09261
1.03008
0.977822
0.932969
0.893246
0.856102
0.821171
0.788356
0.756857
0.727683
0.700173
0.674227
0.649548
0.626359
0.604461
1.61186
1.47172
1.35382
1.25359
1.16801
1.09505
1.03203
0.978199
0.931567
0.890136
0.852065
0.816517
0.783983
0.752917
0.724037
0.69682
0.671243
0.646985
0.624158
0.602523
1.61268
1.47313
1.35564
1.25572
1.17032
1.0972
1.03409
0.979433
0.931747
0.889246
0.850419
0.814781
0.781785
0.751261
0.722027
0.695102
0.669738
0.645722
0.62311
0.601613
1.61344
1.47443
1.35731
1.25768
1.1725
1.09932
1.03602
0.980873
0.932559
0.889336
0.849979
0.814009
0.780808
0.750033
0.721217
0.694299
0.669015
0.645119
0.622628
0.601225
1.61414
1.47564
1.35886
1.2595
1.17474
1.10133
1.03783
0.982392
0.933604
0.889951
0.85016
0.813837
0.780551
0.749823
0.720844
0.694072
0.668849
0.64504
0.622632
0.601288
1.61479
1.47676
1.36031
1.26119
1.1764
1.10318
1.03961
0.984013
0.9349
0.890907
0.850839
0.814439
0.780901
0.74999
0.721202
0.694374
0.669146
0.645375
0.62301
0.601697
1.61541
1.47782
1.36166
1.26274
1.17795
1.10483
1.04127
0.985582
0.936291
0.892064
0.8519
0.815324
0.781671
0.7507
0.721914
0.695047
0.669808
0.646049
0.623711
0.60242
1.61599
1.47881
1.36292
1.26419
1.17952
1.1064
1.04285
0.987142
0.937786
0.893455
0.853207
0.816531
0.782789
0.75175
0.722909
0.696005
0.670732
0.646954
0.624593
0.603283
1.61646
1.47961
1.36392
1.26531
1.18065
1.10755
1.04399
0.988324
0.93891
0.894543
0.854234
0.817517
0.783702
0.752606
0.723811
0.696753
0.671425
0.647584
0.625164
0.603805
1.7328
1.61389
1.66885
2.06072
4.50401
6.05989
1.68028
1.50966
1.37156
1.26206
1.21095
1.21009
1.77288
4.08619
6.14792
6.06571
5.40975
4.77054
4.44259
3.79418
1.60187
1.45525
1.33271
1.22883
1.14309
1.09254
1.28524
2.16947
13.5522
6.09172
4.66773
3.5488
2.30012
2.20643
1.7628
1.6032
1.45721
1.33517
1.23188
1.14542
1.08124
1.12254
1.37471
2.30216
4.67452
7.3443
2.48492
2.05275
1.71622
1.47491
1.30011
1.17223
1.07068
1.60483
1.45986
1.33853
1.23574
1.14899
1.07999
1.05798
1.16557
1.42165
1.71095
1.8669
1.70397
1.26538
1.13373
1.02703
0.945754
0.882177
0.826032
0.779036
0.738412
1.60632
1.46235
1.34172
1.23943
1.15273
1.08128
1.03598
1.05124
1.0831
1.09799
1.06402
1.01297
0.9512
0.893174
0.842319
0.798565
0.759999
0.723541
0.69083
0.66137
1.60767
1.46461
1.34463
1.24274
1.15628
1.08393
1.02841
1.00351
0.991272
0.976007
0.941019
0.901411
0.859113
0.814999
0.778838
0.744956
0.713626
0.683796
0.655948
0.630544
1.60887
1.46664
1.34727
1.24592
1.15961
1.08678
1.02729
0.984969
0.952644
0.922989
0.888175
0.852893
0.816932
0.780975
0.749347
0.719335
0.691182
0.664297
0.63913
0.615741
1.60976
1.46825
1.34951
1.24875
1.16279
1.08999
1.02829
0.978966
0.937978
0.90163
0.865707
0.831122
0.797536
0.764377
0.734603
0.706345
0.679726
0.654358
0.630485
0.608138
1.61096
1.47018
1.35183
1.25127
1.16549
1.09262
1.03009
0.977799
0.932951
0.893263
0.856105
0.821045
0.788386
0.7567
0.727673
0.700144
0.67421
0.649562
0.626354
0.604455
1.61186
1.47172
1.35383
1.25359
1.168
1.09503
1.03206
0.978199
0.931559
0.890143
0.852052
0.816536
0.78392
0.752774
0.724034
0.696818
0.671236
0.646988
0.624148
0.602522
1.61268
1.47313
1.35564
1.25572
1.17031
1.09722
1.03407
0.979402
0.931748
0.889257
0.850424
0.814783
0.781761
0.751019
0.722133
0.695111
0.669733
0.645716
0.623092
0.601611
1.61344
1.47443
1.35732
1.25768
1.17249
1.09934
1.036
0.980847
0.932552
0.889348
0.849984
0.814015
0.780797
0.749928
0.721202
0.694299
0.669012
0.645113
0.622613
0.601227
1.61414
1.47563
1.35887
1.25951
1.17471
1.10135
1.03784
0.982377
0.93361
0.889957
0.850159
0.813868
0.780523
0.749797
0.720744
0.694037
0.66884
0.645031
0.622619
0.601291
1.6148
1.47676
1.36032
1.26119
1.17642
1.10315
1.0396
0.984002
0.93491
0.890914
0.850839
0.81444
0.780899
0.749952
0.721083
0.694354
0.669148
0.645368
0.622996
0.601701
1.61541
1.47782
1.36166
1.26274
1.17798
1.10481
1.04126
0.985571
0.936298
0.892071
0.851902
0.815325
0.781672
0.750678
0.721816
0.695039
0.669816
0.646045
0.623698
0.602422
1.61599
1.47881
1.36293
1.26419
1.17953
1.10639
1.04284
0.987134
0.93779
0.89346
0.853209
0.816533
0.782788
0.751733
0.722836
0.696006
0.670741
0.646948
0.624582
0.603285
1.61646
1.47961
1.36393
1.26531
1.18065
1.10754
1.04398
0.98832
0.938913
0.894546
0.854237
0.817518
0.783701
0.752601
0.723776
0.696735
0.671424
0.647576
0.625157
0.603811
1.73266
1.5877
1.60868
1.87692
4.23019
5.75665
1.68028
1.50963
1.37152
1.26188
1.21501
1.21232
1.74224
3.84188
5.81622
5.81965
5.23618
4.69055
4.43157
3.8333
1.60185
1.45519
1.33266
1.2288
1.14317
1.09214
1.27718
2.1142
15.1462
6.19348
4.72988
3.58851
2.29369
2.18475
1.75379
1.60321
1.45721
1.33517
1.23187
1.14542
1.08117
1.12189
1.37054
2.19282
4.91256
7.73245
2.43873
2.0412
1.71817
1.47545
1.30277
1.17286
1.07002
1.60484
1.45986
1.33853
1.23573
1.14897
1.08001
1.05838
1.16433
1.40377
1.68386
1.83888
1.69223
1.26756
1.14149
1.03414
0.949445
0.882929
0.826785
0.778995
0.738015
1.60633
1.46235
1.34172
1.23942
1.15271
1.08133
1.0362
1.05135
1.08368
1.0993
1.06507
1.01414
0.951614
0.894495
0.843236
0.798725
0.75973
0.723674
0.690831
0.661256
1.60768
1.4646
1.34463
1.24276
1.15626
1.08405
1.02848
1.00363
0.991761
0.976679
0.941371
0.90161
0.85857
0.81626
0.779006
0.744844
0.713441
0.683808
0.656033
0.630546
1.60888
1.46664
1.34727
1.24591
1.15961
1.08691
1.02724
0.984947
0.952764
0.92317
0.888269
0.852942
0.816676
0.781389
0.749327
0.719223
0.691077
0.664316
0.639158
0.615739
1.60984
1.46829
1.34951
1.24869
1.16274
1.08999
1.0283
0.978963
0.937985
0.901658
0.865723
0.831065
0.797606
0.764376
0.73457
0.706295
0.67969
0.654376
0.630507
0.608136
1.61096
1.47018
1.35183
1.25127
1.16548
1.09263
1.0301
0.977787
0.932937
0.893269
0.856111
0.82096
0.788399
0.756761
0.727691
0.70013
0.674196
0.64957
0.626354
0.604451
1.61186
1.47172
1.35383
1.2536
1.16799
1.09502
1.03207
0.978204
0.931555
0.890147
0.852046
0.816545
0.783891
0.752765
0.724038
0.696819
0.671232
0.646991
0.624142
0.60252
1.61268
1.47313
1.35565
1.25572
1.1703
1.09723
1.03407
0.979382
0.931742
0.889263
0.850429
0.814785
0.781751
0.750928
0.722192
0.695137
0.669737
0.645714
0.623081
0.601606
1.61344
1.47443
1.35732
1.25768
1.17249
1.09935
1.036
0.980829
0.932543
0.889354
0.849989
0.81402
0.780793
0.749894
0.721214
0.694307
0.669014
0.64511
0.622603
0.601224
1.61414
1.47563
1.35888
1.25951
1.17469
1.10136
1.03784
0.982369
0.933611
0.889962
0.850161
0.813889
0.780512
0.749703
0.720808
0.694039
0.668836
0.645025
0.622608
0.601289
1.6148
1.47676
1.36032
1.2612
1.17644
1.10314
1.03959
0.983992
0.934912
0.89092
0.850842
0.81444
0.780901
0.749931
0.721081
0.694345
0.669147
0.645364
0.622987
0.6017
1.61541
1.47782
1.36167
1.26275
1.178
1.1048
1.04125
0.98556
0.9363
0.892076
0.851906
0.815327
0.781677
0.750664
0.721798
0.695033
0.66982
0.646043
0.623689
0.60242
1.61599
1.47881
1.36294
1.2642
1.17953
1.10639
1.04284
0.987128
0.937792
0.893463
0.853211
0.816534
0.782797
0.751722
0.722809
0.696003
0.670747
0.646945
0.624573
0.603284
1.61646
1.47961
1.36393
1.26531
1.18066
1.10754
1.04398
0.988316
0.938914
0.894548
0.85424
0.817519
0.783711
0.752618
0.723739
0.696716
0.671417
0.647568
0.62515
0.603813
1.73261
1.57384
1.55939
1.75688
4.07098
5.61737
1.68028
1.50962
1.37146
1.26122
1.21615
1.21305
1.71295
3.80147
5.51664
5.5797
5.07083
4.60355
4.40331
3.83828
1.60184
1.45515
1.33262
1.22877
1.14324
1.09188
1.26968
2.06211
16.0997
6.27609
4.80548
3.64219
2.29312
2.17117
1.74404
1.60321
1.45721
1.33516
1.23186
1.14543
1.0811
1.12041
1.36113
2.1211
4.83019
8.19657
2.4093
2.02489
1.71503
1.47515
1.30391
1.17324
1.06951
1.60485
1.45986
1.33853
1.23573
1.14896
1.08001
1.05842
1.16189
1.38615
1.64952
1.79945
1.67402
1.26795
1.14591
1.03965
0.953311
0.884464
0.827636
0.779164
0.73778
1.60634
1.46235
1.34172
1.23942
1.1527
1.08136
1.03635
1.05109
1.08294
1.0989
1.06541
1.0149
0.952069
0.895491
0.844114
0.799065
0.75963
0.723712
0.690835
0.661173
1.60768
1.4646
1.34463
1.24278
1.15625
1.08412
1.02855
1.00368
0.991969
0.977093
0.941695
0.901763
0.858245
0.816939
0.779314
0.744856
0.713316
0.683773
0.656077
0.630555
1.60888
1.46664
1.34727
1.24591
1.15962
1.087
1.02725
0.984941
0.952844
0.923324
0.888378
0.853004
0.816527
0.781641
0.74939
0.719163
0.690985
0.664299
0.639172
0.615737
1.60989
1.46834
1.34952
1.24866
1.1627
1.08999
1.02831
0.978963
0.937993
0.901682
0.865748
0.831033
0.797622
0.764417
0.734567
0.706259
0.679655
0.654378
0.630522
0.608137
1.61096
1.47017
1.35183
1.25126
1.16547
1.09263
1.03011
0.977783
0.932927
0.89327
0.856118
0.820904
0.788388
0.756808
0.72772
0.700127
0.674185
0.649573
0.626357
0.604449
1.61186
1.47172
1.35383
1.2536
1.16798
1.09501
1.03208
0.97821
0.931554
0.890148
0.852044
0.81655
0.783872
0.752759
0.724041
0.69682
0.67123
0.646993
0.62414
0.602517
1.61268
1.47313
1.35565
1.25572
1.1703
1.09724
1.03407
0.97937
0.931734
0.889264
0.850435
0.814788
0.781744
0.750872
0.722218
0.695161
0.669747
0.645716
0.623073
0.6016
1.61344
1.47443
1.35733
1.25769
1.17249
1.09935
1.036
0.980817
0.932533
0.889355
0.849994
0.814025
0.780791
0.749873
0.721225
0.694315
0.669017
0.64511
0.622596
0.60122
1.61415
1.47563
1.35888
1.25952
1.17467
1.10136
1.03785
0.982364
0.933611
0.889965
0.850163
0.813903
0.78051
0.749641
0.720845
0.694052
0.668836
0.64502
0.622599
0.601285
1.6148
1.47676
1.36032
1.2612
1.17645
1.10314
1.03958
0.983983
0.934912
0.890924
0.850845
0.814441
0.780903
0.749913
0.721094
0.694344
0.669146
0.64536
0.622979
0.601697
1.61541
1.47782
1.36167
1.26275
1.17801
1.1048
1.04124
0.98555
0.936299
0.892079
0.851909
0.815328
0.781682
0.750648
0.7218
0.695031
0.669821
0.646043
0.623683
0.602417
1.61599
1.47881
1.36294
1.2642
1.17954
1.10639
1.04284
0.987123
0.937791
0.893465
0.853214
0.816536
0.782803
0.751704
0.722805
0.696001
0.670749
0.646944
0.624568
0.603282
1.61646
1.47961
1.36394
1.26532
1.18066
1.10754
1.04398
0.988313
0.938914
0.89455
0.854243
0.817521
0.783719
0.752641
0.723719
0.696698
0.671407
0.64756
0.625142
0.603813
1.73259
1.56751
1.52344
1.67558
3.99141
5.57864
1.68028
1.5096
1.37141
1.26039
1.21481
1.21193
1.68983
3.92143
5.24183
5.35023
4.91459
4.52297
4.35602
3.81366
1.60183
1.45512
1.33259
1.22875
1.1433
1.09169
1.26398
2.03408
16.3274
6.32158
4.87663
3.70917
2.29988
2.16483
1.73432
1.60322
1.45721
1.33516
1.23185
1.14544
1.08104
1.11871
1.351
2.07264
4.55538
8.60589
2.39846
2.01119
1.70951
1.47375
1.30406
1.17324
1.06897
1.60485
1.45986
1.33853
1.23573
1.14896
1.08001
1.05821
1.15875
1.37113
1.61565
1.75936
1.64906
1.26549
1.14767
1.04343
0.956781
0.886404
0.82868
0.779532
0.737706
1.60634
1.46235
1.34173
1.23942
1.15269
1.08137
1.0364
1.0505
1.08135
1.097
1.06475
1.01504
0.952337
0.896231
0.844913
0.79951
0.759676
0.723734
0.690837
0.661111
1.60768
1.4646
1.34464
1.24279
1.15626
1.08417
1.02861
1.00365
0.991912
0.977177
0.941912
0.901877
0.858061
0.817303
0.779619
0.744948
0.713253
0.683729
0.656092
0.63056
1.60889
1.46664
1.34727
1.24591
1.15962
1.08707
1.02727
0.984941
0.952882
0.923429
0.888489
0.853075
0.816457
0.781795
0.749479
0.719142
0.690915
0.664267
0.639172
0.615733
1.60992
1.46837
1.34954
1.24865
1.16268
1.08999
1.02832
0.978965
0.938001
0.9017
0.865778
0.831024
0.797621
0.764452
0.73458
0.706237
0.679625
0.654372
0.630531
0.608139
1.61096
1.47017
1.35184
1.25126
1.16546
1.09263
1.03012
0.977782
0.932921
0.893268
0.856125
0.820868
0.788368
0.756833
0.72775
0.700132
0.674177
0.649573
0.626358
0.604447
1.61186
1.47172
1.35383
1.2536
1.16798
1.095
1.03209
0.978215
0.931555
0.890148
0.852045
0.816552
0.783859
0.75275
0.724046
0.696821
0.671229
0.646994
0.624138
0.602514
1.61268
1.47312
1.35565
1.25573
1.1703
1.09725
1.03407
0.979363
0.931727
0.889262
0.850439
0.814792
0.78174
0.750835
0.72223
0.69518
0.669758
0.645721
0.623071
0.601595
1.61344
1.47443
1.35733
1.25769
1.17249
1.09936
1.036
0.98081
0.932524
0.889352
0.849997
0.814029
0.780791
0.749858
0.721236
0.694324
0.669022
0.645112
0.622592
0.601216
1.61415
1.47563
1.35888
1.25952
1.17467
1.10136
1.03785
0.982362
0.933609
0.889966
0.850166
0.813913
0.780511
0.749598
0.720869
0.694068
0.668841
0.64502
0.622593
0.601281
1.6148
1.47676
1.36033
1.26121
1.17646
1.10314
1.03958
0.983975
0.934909
0.890926
0.850848
0.814443
0.780906
0.749896
0.721114
0.694351
0.669148
0.645359
0.622974
0.601693
1.61541
1.47782
1.36168
1.26276
1.17802
1.1048
1.04123
0.985543
0.936295
0.89208
0.851912
0.81533
0.781686
0.750632
0.721817
0.695035
0.669824
0.646043
0.623679
0.602414
1.61599
1.47881
1.36294
1.2642
1.17954
1.10639
1.04284
0.987119
0.937789
0.893467
0.853216
0.816538
0.782809
0.751686
0.722821
0.696005
0.670752
0.646945
0.624564
0.603279
1.61646
1.47961
1.36394
1.26532
1.18066
1.10754
1.04398
0.988311
0.938914
0.894552
0.854245
0.817523
0.783724
0.752663
0.723728
0.69669
0.671398
0.647552
0.625135
0.60381
1.73259
1.56492
1.49993
1.61974
3.95451
5.5895
1.68028
1.50959
1.37136
1.25958
1.21198
1.20901
1.67333
4.10085
5.01119
5.13925
4.76148
4.45287
4.28635
3.76825
1.60182
1.4551
1.33257
1.22872
1.14332
1.09151
1.26034
2.0332
16.0564
6.33327
4.92437
3.78431
2.31381
2.16561
1.72566
1.60322
1.45721
1.33516
1.23185
1.14544
1.08099
1.11719
1.34375
2.04655
4.45517
8.96868
2.40296
2.00336
1.7041
1.47171
1.30364
1.17293
1.06831
1.60485
1.45986
1.33853
1.23573
1.14895
1.08
1.05787
1.15558
1.35918
1.58682
1.7222
1.62084
1.26007
1.14701
1.04543
0.959501
0.888402
0.829878
0.780073
0.737787
1.60634
1.46235
1.34173
1.23942
1.15269
1.08138
1.0364
1.04971
1.07931
1.09414
1.06316
1.0145
0.952263
0.896684
0.845576
0.799993
0.759834
0.723782
0.690845
0.661064
1.60768
1.46461
1.34464
1.2428
1.15626
1.0842
1.02866
1.00355
0.991637
0.976938
0.941963
0.901935
0.857959
0.8175
0.779865
0.74507
0.713242
0.683695
0.656092
0.630559
1.60889
1.46665
1.34727
1.24591
1.15962
1.08711
1.0273
0.984938
0.952878
0.923473
0.888587
0.853148
0.81644
0.781898
0.749565
0.719147
0.690865
0.664232
0.639163
0.615726
1.60994
1.4684
1.34956
1.24864
1.16266
1.08999
1.02832
0.978966
0.938005
0.90171
0.865808
0.831031
0.797617
0.764476
0.734596
0.706225
0.679599
0.654363
0.630537
0.608141
1.61096
1.47017
1.35184
1.25126
1.16546
1.09263
1.03012
0.977783
0.932917
0.893264
0.856132
0.820846
0.788349
0.756846
0.727774
0.70014
0.674173
0.649573
0.62636
0.604447
1.61186
1.47171
1.35383
1.2536
1.16798
1.095
1.03209
0.978219
0.931556
0.890147
0.852048
0.816557
0.783852
0.752743
0.724046
0.696822
0.671228
0.646996
0.624139
0.602512
1.61268
1.47312
1.35565
1.25573
1.1703
1.09725
1.03408
0.979361
0.931722
0.889259
0.850442
0.814796
0.781738
0.750812
0.722232
0.695192
0.669769
0.645728
0.623071
0.601592
1.61344
1.47443
1.35733
1.25769
1.17249
1.09936
1.036
0.980806
0.932517
0.889348
0.849998
0.814033
0.780792
0.749849
0.721242
0.694332
0.669027
0.645115
0.622591
0.601212
1.61415
1.47563
1.35888
1.25952
1.17466
1.10136
1.03785
0.98236
0.933607
0.889966
0.850167
0.813921
0.780515
0.749572
0.720877
0.694081
0.668848
0.645021
0.62259
0.601277
1.6148
1.47676
1.36033
1.26121
1.17647
1.10314
1.03958
0.98397
0.934905
0.890926
0.85085
0.814446
0.780908
0.749886
0.721124
0.694358
0.669151
0.645359
0.622971
0.60169
1.61542
1.47782
1.36168
1.26276
1.17803
1.10481
1.04123
0.985536
0.93629
0.89208
0.851913
0.815333
0.78169
0.750622
0.721825
0.695041
0.669826
0.646044
0.623676
0.602412
1.61599
1.47881
1.36294
1.26421
1.17954
1.10639
1.04284
0.987116
0.937787
0.893467
0.853218
0.81654
0.782813
0.751676
0.722828
0.696009
0.670755
0.646946
0.624562
0.603277
1.61646
1.47961
1.36394
1.26532
1.18067
1.10755
1.04398
0.988309
0.938912
0.894552
0.854247
0.817525
0.783729
0.752678
0.72374
0.696688
0.671391
0.647544
0.625128
0.603806
1.73259
1.56393
1.48607
1.58146
3.93468
5.61895
1.68028
1.50959
1.37132
1.25888
1.2086
1.2047
1.66193
4.25956
4.88538
4.9589
4.6146
4.39504
4.20701
3.70946
1.60181
1.45508
1.33255
1.22869
1.1433
1.09128
1.25835
2.05054
15.4784
6.31643
4.9412
3.857
2.33339
2.17302
1.71896
1.60322
1.45721
1.33516
1.23185
1.14545
1.08094
1.11601
1.34073
2.04311
4.51466
9.24203
2.41609
2.00142
1.70036
1.46967
1.30302
1.17246
1.06753
1.60485
1.45986
1.33853
1.23573
1.14896
1.08
1.05752
1.153
1.35084
1.56589
1.69025
1.59262
1.2522
1.14422
1.04576
0.961279
0.890176
0.831121
0.780745
0.738005
1.60634
1.46235
1.34173
1.23942
1.15269
1.08138
1.03635
1.04886
1.07719
1.09086
1.06088
1.01335
0.95179
0.896817
0.846054
0.800456
0.760067
0.723872
0.690874
0.661033
1.60768
1.46461
1.34464
1.24281
1.15627
1.08422
1.02868
1.0034
0.991213
0.976439
0.941821
0.901917
0.857891
0.817607
0.780049
0.745195
0.713264
0.683676
0.656088
0.630555
1.60889
1.46665
1.34728
1.24591
1.15963
1.08714
1.02732
0.984927
0.952834
0.923453
0.888657
0.85321
0.816449
0.781978
0.749647
0.719171
0.690835
0.6642
0.63915
0.615716
1.60995
1.46843
1.34958
1.24865
1.16265
1.08998
1.02832
0.978966
0.938004
0.90171
0.865834
0.831049
0.797618
0.764494
0.734612
0.70622
0.67958
0.654353
0.630539
0.608142
1.61096
1.47017
1.35184
1.25126
1.16546
1.09263
1.03012
0.977785
0.932914
0.893257
0.856138
0.820834
0.788332
0.756851
0.727791
0.700149
0.67417
0.649573
0.626362
0.604448
1.61186
1.47171
1.35383
1.2536
1.16798
1.095
1.03209
0.978222
0.931558
0.890145
0.85205
0.816562
0.783848
0.752737
0.724045
0.696822
0.671227
0.646998
0.624141
0.602511
1.61268
1.47312
1.35565
1.25573
1.1703
1.09725
1.03408
0.97936
0.931718
0.889254
0.850443
0.8148
0.781738
0.750797
0.722229
0.695199
0.669778
0.645735
0.623074
0.60159
1.61344
1.47443
1.35733
1.25769
1.17249
1.09937
1.036
0.980804
0.932512
0.889343
0.849998
0.814035
0.780793
0.749843
0.721244
0.694337
0.669032
0.645118
0.622591
0.60121
1.61415
1.47563
1.35888
1.25952
1.17466
1.10136
1.03785
0.98236
0.933605
0.889964
0.850169
0.813927
0.780519
0.749556
0.720878
0.69409
0.668856
0.645024
0.622589
0.601274
1.6148
1.47676
1.36033
1.26121
1.17647
1.10314
1.03957
0.983966
0.934902
0.890925
0.850852
0.814448
0.78091
0.74988
0.721129
0.694365
0.669155
0.64536
0.62297
0.601687
1.61542
1.47782
1.36168
1.26276
1.17804
1.10481
1.04123
0.985532
0.936286
0.892078
0.851914
0.815334
0.781693
0.750617
0.721829
0.695046
0.66983
0.646045
0.623676
0.60241
1.61599
1.47881
1.36294
1.26421
1.17955
1.10639
1.04284
0.987114
0.937785
0.893466
0.853219
0.816542
0.782816
0.75167
0.722831
0.696013
0.670757
0.646947
0.624562
0.603275
1.61646
1.47961
1.36394
1.26532
1.18067
1.10755
1.04398
0.988307
0.938911
0.894552
0.854248
0.817526
0.783732
0.752689
0.723751
0.69669
0.671387
0.647538
0.625121
0.603801
1.73259
1.56357
1.47864
1.55565
3.92378
5.64668
1.68028
1.50958
1.37129
1.25831
1.20531
1.19962
1.65393
4.36907
4.87638
4.82739
4.482
4.34425
4.13243
3.64258
1.60181
1.45507
1.33253
1.22867
1.14325
1.09101
1.25737
2.07415
14.6601
6.27547
4.92656
3.91396
2.35582
2.18573
1.71448
1.60322
1.45721
1.33516
1.23185
1.14545
1.08088
1.11516
1.34126
2.05626
4.61247
9.36505
2.43102
2.00311
1.69841
1.46811
1.30251
1.17203
1.06672
1.60485
1.45986
1.33853
1.23573
1.14896
1.07999
1.05719
1.15135
1.34655
1.55355
1.66658
1.56717
1.24272
1.13974
1.04456
0.962049
0.891528
0.83228
0.78148
0.738333
1.60634
1.46235
1.34173
1.23942
1.1527
1.08138
1.03628
1.04812
1.07528
1.08765
1.05825
1.01174
0.950945
0.896628
0.846306
0.800843
0.760328
0.723999
0.690927
0.661022
1.60769
1.46461
1.34464
1.24282
1.15627
1.08424
1.02869
1.00322
0.990714
0.975766
0.941496
0.901792
0.857813
0.81766
0.780184
0.745307
0.713301
0.683674
0.656086
0.630549
1.60889
1.46665
1.34728
1.24591
1.15963
1.08716
1.02735
0.984906
0.952757
0.923372
0.888683
0.853252
0.816465
0.782046
0.749726
0.719207
0.69082
0.664174
0.639136
0.615704
1.60996
1.46845
1.3496
1.24865
1.16265
1.08998
1.02833
0.978964
0.937998
0.9017
0.86585
0.831071
0.797624
0.764508
0.734628
0.70622
0.679564
0.654342
0.63054
0.608144
1.61096
1.47018
1.35184
1.25126
1.16545
1.09263
1.03012
0.977786
0.932913
0.893249
0.856142
0.820826
0.788318
0.756852
0.727805
0.700158
0.674169
0.649572
0.626365
0.60445
1.61186
1.47171
1.35383
1.2536
1.16798
1.095
1.03209
0.978225
0.93156
0.890142
0.852051
0.816568
0.783847
0.752734
0.724044
0.69682
0.671225
0.646999
0.624143
0.602511
1.61268
1.47312
1.35565
1.25573
1.1703
1.09726
1.03408
0.979361
0.931716
0.889249
0.850443
0.814803
0.781739
0.750788
0.722225
0.695203
0.669784
0.645742
0.623079
0.601591
1.61344
1.47443
1.35733
1.25769
1.17249
1.09937
1.03601
0.980804
0.932509
0.889338
0.849996
0.814037
0.780794
0.749839
0.721244
0.694341
0.669036
0.645122
0.622593
0.601209
1.61415
1.47563
1.35888
1.25953
1.17466
1.10136
1.03785
0.98236
0.933604
0.889962
0.850169
0.813931
0.780522
0.749547
0.720876
0.694095
0.668862
0.645028
0.62259
0.601272
1.6148
1.47676
1.36033
1.26121
1.17647
1.10314
1.03957
0.983964
0.934899
0.890923
0.850852
0.81445
0.780912
0.749876
0.721131
0.69437
0.669158
0.645362
0.62297
0.601686
1.61542
1.47782
1.36168
1.26276
1.17804
1.10481
1.04123
0.98553
0.936283
0.892075
0.851914
0.815336
0.781695
0.750614
0.721831
0.695049
0.669833
0.646047
0.623676
0.602409
1.61599
1.47881
1.36294
1.26421
1.17955
1.1064
1.04284
0.987113
0.937783
0.893465
0.85322
0.816543
0.782819
0.751667
0.722833
0.696016
0.67076
0.646948
0.624561
0.603274
1.61646
1.47961
1.36394
1.26533
1.18067
1.10755
1.04398
0.988307
0.93891
0.894552
0.854249
0.817528
0.783735
0.752698
0.723761
0.696695
0.671386
0.647533
0.625115
0.603796
1.73259
1.56344
1.47497
1.53887
3.9183
5.66432
1.68027
1.50958
1.37127
1.25787
1.20246
1.19437
1.64805
4.4379
4.97748
4.76535
4.37276
4.30305
4.0695
3.57299
1.6018
1.45506
1.33252
1.22865
1.14319
1.09068
1.2569
2.09577
13.5693
6.21665
4.87908
3.94745
2.37759
2.20155
1.71268
1.60322
1.45721
1.33516
1.23185
1.14544
1.08082
1.11458
1.34375
2.07729
4.69238
9.33967
2.44221
2.00563
1.69768
1.46718
1.3022
1.17172
1.06596
1.60485
1.45987
1.33854
1.23573
1.14896
1.07997
1.05693
1.15064
1.34589
1.54874
1.65252
1.54677
1.23267
1.1341
1.04209
0.961836
0.892347
0.833245
0.782206
0.73873
1.60634
1.46235
1.34173
1.23942
1.1527
1.08139
1.03621
1.04756
1.07378
1.08486
1.05558
1.00984
0.9498
0.896146
0.84632
0.801114
0.760577
0.724153
0.691007
0.661032
1.60769
1.46461
1.34464
1.24282
1.15628
1.08425
1.02869
1.00304
0.990216
0.975018
0.941027
0.901552
0.857691
0.817667
0.780279
0.745403
0.713343
0.683682
0.656089
0.630545
1.60889
1.46665
1.34728
1.24591
1.15964
1.08717
1.02736
0.984879
0.952658
0.923242
0.888659
0.853267
0.816473
0.7821
0.749801
0.719251
0.690818
0.664156
0.639123
0.615694
1.60997
1.46846
1.34962
1.24866
1.16265
1.08998
1.02833
0.978961
0.937987
0.90168
0.865854
0.83109
0.797634
0.764521
0.734645
0.706223
0.679552
0.654332
0.63054
0.608146
1.61096
1.47018
1.35184
1.25127
1.16545
1.09263
1.03013
0.977786
0.932912
0.893239
0.856142
0.820821
0.788307
0.756852