/*--------------------------------*- C++ -*----------------------------------*\
  =========                 |
  \\      /  F ield         | OpenFOAM: The Open Source CFD Toolbox
   \\    /   O peration     | Website:  https://openfoam.org
    \\  /    A nd           | Version:  10
     \\/     M anipulation  |
\*---------------------------------------------------------------------------*/
FoamFile
{
    format      ascii;
    class       volScalarField;
    location    "2000";
    object      p;
}
// * * * * * * * * * * * * * * * * * * * * * * * * * * * * * * * * * * * * * //

dimensions      [0 2 -2 0 0 0 0];

internalField   nonuniform List<scalar> 
55398
(
43.4134
35.0812
39.9686
41.4646
45.3758
54.6593
38.3548
35.3426
38.3058
40.1595
44.3296
52.4467
64.2831
79.541
-41.0972
-24.8525
-6.84708
1.46894
1.26103
0.404861
35.7994
34.8
36.3954
38.5458
41.6327
46.4261
49.0784
43.593
-35.6048
-44.2036
-23.3339
-6.85121
-1.54898
-1.01691
0.0273111
34.2827
33.5455
34.542
35.8845
37.3632
38.2424
34.4712
17.8541
-79.4605
-126.619
-60.1711
-42.2567
-36.837
-20.5572
-8.69188
-3.3274
-2.62296
-0.37056
32.675
32.12
32.517
33.0052
32.9361
30.9991
22.8649
-7.42654
-70.1785
-110.676
-144.474
-106.485
-64.5936
-43.2858
-34.6216
-21.4179
-10.9888
-5.22556
-3.73864
-1.06452
31.0596
30.572
30.4542
30.1341
28.787
24.776
14.7743
-13.2446
-67.098
-96.3136
-109.915
-86.8393
-57.1709
-43.1986
-33.4924
-22.262
-12.6875
-6.89913
-4.4928
-1.59165
29.4403
28.9672
28.4065
27.3598
24.9393
19.6795
8.53428
-14.5435
-56.1824
-80.9671
-91.2617
-76.7698
-55.551
-42.4419
-32.875
-22.8099
-14.0143
-8.20087
-5.03218
-2.00988
27.8561
27.3645
26.4268
24.7653
21.5223
15.4672
4.14894
-15.8028
-48.5566
-69.6293
-78.2638
-69.5611
-53.3528
-41.2866
-32.0921
-23.0546
-14.9665
-9.21996
-5.43939
-2.35952
26.3249
25.7845
24.5321
22.3866
18.5775
12.0695
0.924739
-16.5075
-42.4819
-60.4542
-68.3848
-62.7121
-50.3886
-39.9081
-31.377
-23.2191
-15.6675
-10.0324
-5.75555
-2.62914
24.8855
24.2922
22.7833
20.2519
16.047
9.29711
-1.38928
-16.7989
-37.8481
-53.2799
-60.3649
-57.1623
-47.8705
-38.7438
-30.8041
-23.2713
-16.1387
-10.6389
-5.99452
-2.82651
23.5688
22.9339
21.2219
18.3879
13.8991
7.07014
-3.12745
-16.893
-34.3017
-47.5568
-54.0366
-52.4098
-45.2647
-37.3934
-30.0847
-23.1617
-16.4225
-11.0837
-6.16992
-2.97859
22.3837
21.7078
19.8372
16.774
12.1039
5.27168
-4.37685
-16.7944
-31.5178
-43.0613
-48.9936
-48.4053
-43.0044
-36.2702
-29.5201
-23.0893
-16.6339
-11.4315
-6.31292
-3.09435
21.343
20.6307
18.6387
15.4079
10.6264
3.86946
-5.27972
-16.6242
-29.3442
-39.5476
-44.9859
-45.1308
-41.0176
-35.1923
-28.9508
-22.9037
-16.7105
-11.6524
-6.39987
-3.17294
20.4571
19.7161
17.6333
14.2835
9.44859
2.78551
-5.93404
-16.4313
-27.647
-36.8823
-41.885
-42.4633
-39.3521
-34.2666
-28.4487
-22.7556
-16.7713
-11.8321
-6.48138
-3.24082
19.7365
18.9736
16.825
13.392
8.52676
1.96802
-6.39925
-16.2738
-26.3504
-34.8279
-39.4888
-40.3874
-38.0553
-33.5035
-28.033
-22.6052
-16.7759
-11.9355
-6.52146
-3.2784
19.1889
18.4103
16.2163
12.7272
7.84984
1.36808
-6.72605
-16.108
-25.4993
-33.2573
-37.7196
-38.9755
-37.1066
-32.9229
-27.7194
-22.4861
-16.7779
-12.0161
-6.55969
-3.31286
18.8201
18.0313
15.8091
12.2867
7.40675
0.979947
-6.92127
-15.9967
-24.9055
-32.3358
-36.7326
-37.867
-36.4351
-32.5147
-27.492
-22.3976
-16.7659
-12.0565
-6.57475
-3.32763
18.6348
17.8405
15.6046
12.0662
7.18264
0.783124
-7.02632
-15.9734
-24.5965
-31.898
-36.2056
-37.2848
-36.1572
-32.3242
-27.3778
-22.3496
-16.7602
-12.0795
-6.58472
-3.33772
43.2796
35.2644
40.0901
41.4684
46.3305
55.082
38.3093
35.3347
38.249
40.1763
44.393
52.385
65.1173
82.3133
-40.404
-25.4151
-8.3891
2.28944
2.45681
2.35138
35.7515
34.7269
36.3249
38.5027
41.499
46.2563
48.7312
43.3676
-38.6044
-41.6764
-24.8132
-7.66143
0.263765
0.311953
1.6124
34.2578
33.4705
34.4748
35.8503
37.2506
38.1313
34.2637
17.8471
-79.5291
-122.78
-58.8012
-38.8941
-35.8227
-21.3043
-8.95237
-2.91484
-2.51542
0.0836299
32.6524
32.0524
32.4534
32.9667
32.8321
30.9608
22.6947
-6.93956
-68.7592
-109.487
-140.161
-106.656
-60.7166
-42.5477
-34.4036
-21.7943
-11.1451
-5.11982
-3.60243
-0.785516
31.0399
30.51
30.3961
30.0977
28.7019
24.7578
14.6707
-12.8906
-66.4044
-95.6012
-107.387
-87.0319
-57.6201
-42.8876
-33.2906
-22.4336
-12.786
-6.87915
-4.37361
-1.39096
29.4226
28.9107
28.3541
27.3371
24.8954
19.7062
8.50009
-14.3932
-55.882
-80.54
-90.5102
-76.5367
-55.7336
-42.3285
-32.7188
-22.8814
-14.0668
-8.20894
-4.95856
-1.87254
27.841
27.3158
26.3828
24.7506
21.5285
15.484
4.15823
-15.7102
-48.2964
-69.3355
-77.8795
-69.4184
-53.4014
-41.2692
-32.0121
-23.0902
-14.9923
-9.23372
-5.39425
-2.23938
26.3197
25.7656
24.5187
22.3862
18.5902
12.0861
0.93771
-16.428
-42.3561
-60.2463
-68.1528
-62.5848
-50.4187
-39.9248
-31.3586
-23.2212
-15.6748
-10.0438
-5.72514
-2.53058
24.8871
24.2972
22.7936
20.2686
16.0601
9.30886
-1.35943
-16.7467
-37.7751
-53.1381
-60.2007
-57.0407
-47.869
-38.76
-30.7739
-23.2612
-16.1367
-10.6476
-5.96391
-2.75167
23.5705
22.9388
21.2308
18.4017
13.9118
7.08748
-3.08596
-16.8535
-34.2484
-47.4812
-53.9416
-52.2857
-45.2496
-37.4166
-30.0671
-23.1552
-16.4115
-11.0896
-6.14413
-2.91997
22.385
21.7114
19.8441
16.7849
12.1134
5.28809
-4.33607
-16.7699
-31.4926
-43.0146
-48.9394
-48.312
-42.9526
-36.3098
-29.5015
-23.0779
-16.6254
-11.4353
-6.2917
-3.04841
21.3437
20.6335
18.6441
15.4167
10.6349
3.88601
-5.25386
-16.609
-29.3266
-39.5088
-44.9522
-45.0693
-40.973
-35.22
-28.9552
-22.8954
-16.7023
-11.6551
-6.38307
-3.13765
20.458
19.7182
17.6375
14.2907
9.45437
2.80212
-5.91573
-16.4191
-27.6314
-36.8539
-41.8655
-42.4258
-39.322
-34.2776
-28.4466
-22.7519
-16.7651
-11.8344
-6.46815
-3.21363
19.7371
18.9752
16.8282
13.3973
8.53416
1.98047
-6.38681
-16.2654
-26.3418
-34.8085
-39.4784
-40.3682
-38.0407
-33.5047
-28.031
-22.6007
-16.7713
-11.9376
-6.5116
-3.25817
19.1894
18.4115
16.2187
12.731
7.85735
1.37456
-6.71864
-16.1029
-25.4948
-33.2469
-37.7144
-38.9646
-37.0993
-32.9233
-27.7137
-22.4819
-16.7743
-12.0174
-6.55279
-3.29863
18.8204
18.032
15.8106
12.2889
7.40935
0.983821
-6.91898
-15.9953
-24.9042
-32.332
-36.7329
-37.8612
-36.43
-32.514
-27.4891
-22.3931
-16.7641
-12.058
-6.57074
-3.31877
18.635
17.8408
15.6054
12.067
7.18351
0.783406
-7.02718
-15.9743
-24.5971
-31.8969
-36.2074
-37.2817
-36.155
-32.3227
-27.3768
-22.3462
-16.759
-12.0799
-6.58118
-3.33218
43.31
35.3506
40.0678
41.2047
45.6896
55.3172
38.3168
35.3613
38.2335
40.0644
44.245
52.1008
63.3924
78.6273
-38.7802
-26.0935
-9.61186
1.8076
3.13992
1.59439
35.735
34.7029
36.2739
38.4025
41.3589
45.9102
47.2339
40.7587
-39.3171
-39.4057
-25.2411
-9.08839
-0.810156
-0.0542922
0.951799
34.2396
33.4252
34.414
35.7299
37.0801
37.8159
33.2725
16.9444
-78.2826
-123.91
-57.7438
-40.8445
-35.1585
-21.8541
-9.40973
-3.3808
-2.66603
-0.267029
32.6348
32.0068
32.3969
32.8563
32.679
30.7108
22.0089
-6.92809
-67.7264
-108.966
-139.174
-105.377
-60.4136
-43.1368
-34.2664
-22.1122
-11.4108
-5.30868
-3.72258
-0.939109
31.024
30.468
30.3443
30.0012
28.5747
24.5646
14.2805
-12.9517
-65.9836
-95.2942
-106.41
-86.6505
-57.3431
-42.8085
-33.1768
-22.5789
-12.9651
-7.0006
-4.45615
-1.50049
29.4082
28.8736
28.3087
27.2565
24.7999
19.5689
8.31324
-14.344
-55.5134
-80.196
-90.0501
-76.2696
-55.6708
-42.2252
-32.6558
-22.9746
-14.1825
-8.27264
-5.00666
-1.95899
27.8292
27.2849
26.3449
24.6877
21.4582
15.469
4.09066
-15.6253
-48.0236
-69.0703
-77.6779
-69.3068
-53.4024
-41.2536
-31.9986
-23.1489
-15.0641
-9.26257
-5.41077
-2.30324
26.3111
25.7449
24.4924
22.3398
18.5382
12.0697
0.944558
-16.366
-42.1645
-60.058
-67.9697
-62.4523
-50.4242
-39.9232
-31.3375
-23.2541
-15.7149
-10.0544
-5.73205
-2.57689
24.882
24.2861
22.778
20.2335
16.0212
9.29284
-1.3671
-16.7002
-37.6536
-53.0037
-60.0686
-56.9105
-47.8303
-38.7497
-30.7514
-23.2784
-16.1595
-10.6499
-5.96794
-2.78378
23.5671
22.9314
21.2195
18.3739
13.8821
7.05608
-3.0806
-16.807
-34.1927
-47.3934
-53.8603
-52.1784
-45.1978
-37.4077
-30.0528
-23.1674
-16.4255
-11.0886
-6.1467
-2.94336
22.3826
21.706
19.8357
16.7641
12.0909
5.27503
-4.33945
-16.7483
-31.4577
-42.9622
-48.8959
-48.2367
-42.9123
-36.2721
-29.4888
-23.0901
-16.6307
-11.431
-6.29221
-3.06637
21.3416
20.6295
18.6381
15.4016
10.6195
3.87787
-5.24978
-16.5934
-29.3027
-39.4753
-44.9276
-45.0173
-40.9479
-35.1899
-28.9173
-22.9013
-16.7042
-11.6504
-6.38322
-3.15136
20.4565
19.7154
17.6333
14.2803
9.44322
2.79997
-5.90794
-16.4061
-27.6159
-36.8315
-41.853
-42.3973
-39.3072
-34.2718
-28.417
-22.7498
-16.7637
-11.8293
-6.46715
-3.22359
19.7361
18.9733
16.8257
13.3909
8.53151
1.98166
-6.37691
-16.2552
-26.3329
-34.7946
-39.4719
-40.3516
-38.04
-33.5051
-28.0283
-22.5986
-16.7702
-11.9338
-6.51068
-3.26533
19.1887
18.4104
16.2174
12.7279
7.85563
1.37961
-6.70934
-16.0948
-25.4891
-33.2394
-37.7118
-38.9552
-37.0989
-32.9255
-27.7104
-22.4784
-16.7721
-12.0145
-6.55165
-3.30324
18.8202
18.0316
15.8103
12.288
7.40978
0.988306
-6.91192
-15.9892
-24.9008
-32.328
-36.7335
-37.8567
-36.4298
-32.5155
-27.484
-22.3902
-16.762
-12.0567
-6.56995
-3.32106
18.635
17.8408
15.6058
12.0676
7.18551
0.787102
-7.02232
-15.9703
-24.5954
-31.8947
-36.2091
-37.2791
-36.1554
-32.3225
-27.3735
-22.344
-16.7589
-12.081
-6.58218
-3.3346
43.3464
35.3685
40.0135
41.0946
45.7547
55.4157
38.3321
35.3668
38.2224
40.035
44.2499
52.1525
63.4328
78.8789
-36.8615
-26.232
-10.5012
1.70963
3.23104
1.94864
35.7443
34.7157
36.2767
38.3903
41.3576
45.8749
46.991
41.1873
-42.6672
-37.2881
-25.4656
-10.028
-1.45993
0.0809263
0.818661
34.2458
33.4347
34.424
35.7196
37.076
37.8092
33.0849
17.1802
-78.4929
-124.441
-58.1565
-41.6729
-33.924
-21.9779
-9.86994
-3.80132
-2.64719
-0.297003
32.6389
32.0131
32.4079
32.8491
32.6764
30.6967
21.8508
-6.90946
-68.1294
-109.366
-138.874
-105.118
-60.21
-43.5363
-33.6944
-22.1768
-11.684
-5.5937
-3.728
-0.954792
31.0273
30.4727
30.354
29.9947
28.572
24.5491
14.1917
-12.9626
-66.0691
-95.3839
-106.213
-86.6518
-57.2031
-42.9302
-32.9322
-22.571
-13.1546
-7.1984
-4.46159
-1.50114
29.4107
28.8776
28.3174
27.25
24.7966
19.5592
8.27468
-14.3564
-55.5077
-80.2563
-90.143
-76.3159
-55.4756
-42.2429
-32.5996
-22.9864
-14.3085
-8.40655
-5.02462
-1.95823
27.8313
27.288
26.3515
24.6817
21.452
15.454
4.08952
-15.6239
-48.0126
-69.1019
-77.7235
-69.3709
-53.2114
-41.1731
-31.9733
-23.1507
-15.1369
-9.37374
-5.43685
-2.30527
26.3118
25.7455
24.4946
22.3326
18.5283
12.0608
0.941841
-16.3776
-42.1498
-60.0741
-67.9608
-62.4705
-50.3173
-39.8361
-31.3207
-23.2558
-15.7592
-10.1351
-5.75674
-2.58106
24.8817
24.2845
22.7765
20.2242
16.0108
9.29335
-1.37568
-16.708
-37.6388
-53.0053
-60.0707
-56.901
-47.7565
-38.6986
-30.7366
-23.2806
-16.1882
-10.709
-5.9906
-2.78732
23.5668
22.9296
21.2174
18.3654
13.8732
7.05964
-3.08979
-16.8139
-34.183
-47.3871
-53.8675
-52.1726
-45.1349
-37.3697
-30.0404
-23.1692
-16.4444
-11.1316
-6.16574
-2.94636
22.3823
21.7045
19.8339
16.7574
12.0845
5.2758
-4.34722
-16.752
-31.4535
-42.9561
-48.9024
-48.2263
-42.8909
-36.2221
-29.4785
-23.0853
-16.6417
-11.463
-6.30775
-3.06932
21.3415
20.6283
18.6368
15.3965
10.6153
3.87521
-5.25409
-16.5927
-29.2989
-39.47
-44.9336
-45.0074
-40.9351
-35.1516
-28.8983
-22.9003
-16.7112
-11.674
-6.39553
-3.15385
20.4562
19.7145
17.6323
14.2764
9.44249
2.79708
-5.91032
-16.4053
-27.6138
-36.827
-41.8599
-42.3885
-39.2997
-34.2344
-28.4085
-22.7524
-16.7679
-11.8465
-6.47657
-3.22574
19.736
18.9727
16.8249
13.3885
8.53144
1.98083
-6.3769
-16.254
-26.3324
-34.7916
-39.4774
-40.3476
-38.0333
-33.4759
-28.0136
-22.6002
-16.7727
-11.9469
-6.51824
-3.26721
19.1888
18.4099
16.2169
12.7265
7.85435
1.37937
-6.70886
-16.0933
-25.4883
-33.238
-37.7146
-38.9534
-37.0938
-32.9052
-27.6952
-22.4776
-16.7725
-12.0242
-6.55712
-3.30485
18.8202
18.0313
15.8099
12.2872
7.4088
0.988173
-6.9113
-15.9874
-24.9003
-32.3266
-36.7358
-37.856
-36.4274
-32.5035
-27.4722
-22.3896
-16.7614
-12.0638
-6.57346
-3.32205
18.635
17.8407
15.6056
12.0672
7.18498
0.787194
-7.02177
-15.9687
-24.5954
-31.8936
-36.2112
-37.2774
-36.1553
-32.3181
-27.3672
-22.3444
-16.7597
-12.0877
-6.58564
-3.33551
43.3572
35.3707
39.9634
41.0511
45.7778
55.4016
38.3358
35.3664
38.2037
40.0064
44.2429
52.1563
63.3552
79.0843
-35.251
-25.9083
-11.4004
1.5316
3.73848
2.26344
35.7534
34.7201
36.2804
38.3951
41.3771
45.9409
47.0794
41.1158
-45.8054
-35.6396
-25.1041
-11.0088
-1.46877
0.526957
0.939351
34.2534
33.4444
34.437
35.7338
37.1017
37.8948
33.1741
17.2772
-78.6242
-124.869
-59.3896
-42.037
-32.7003
-21.9333
-10.3393
-3.88055
-2.5642
-0.179053
32.6454
32.0234
32.4227
32.8655
32.7019
30.7636
21.8791
-6.88244
-68.1886
-109.526
-138.609
-104.911
-60.1842
-43.7263
-33.0485
-22.1276
-11.9198
-5.71172
-3.6487
-0.885987
31.0333
30.4817
30.3678
30.0093
28.5934
24.598
14.2104
-12.9353
-66.1998
-95.4937
-106.316
-86.8394
-57.2285
-43.0122
-32.6156
-22.4908
-13.2906
-7.29993
-4.39912
-1.44708
29.4157
28.8852
28.3296
27.2623
24.8135
19.5941
8.28812
-14.3586
-55.58
-80.3606
-90.3151
-76.4528
-55.3155
-42.3173
-32.4539
-22.9426
-14.3917
-8.48154
-4.98363
-1.91625
27.8355
27.2941
26.3614
24.6915
21.464
15.468
4.09313
-15.6394
-48.0659
-69.1814
-77.7783
-69.4953
-53.1046
-41.1582
-31.8879
-23.1132
-15.1757
-9.42921
-5.4194
-2.27384
26.3147
25.7493
24.5012
22.3395
18.5358
12.0677
0.937598
-16.4012
-42.1838
-60.13
-67.9906
-62.5513
-50.2671
-39.8199
-31.2826
-23.2363
-15.7819
-10.1743
-5.75024
-2.55806
24.8835
24.2865
22.7808
20.2289
16.0159
9.30047
-1.37867
-16.7247
-37.6579
-53.0387
-60.1004
-56.9669
-47.7258
-38.701
-30.716
-23.2701
-16.1999
-10.7374
-5.99101
-2.77064
23.5677
22.9307
21.2203
18.3687
13.8768
7.06708
-3.09068
-16.8257
-34.193
-47.4061
-53.8924
-52.2048
-45.1215
-37.3643
-30.028
-23.1649
-16.4507
-11.1517
-6.16849
-2.93427
22.3827
21.7052
19.8361
16.7598
12.0873
5.28092
-4.3482
-16.7602
-31.4597
-42.9661
-48.9203
-48.2451
-42.888
-36.2133
-29.465
-23.0799
-16.6439
-11.4778
-6.31171
-3.06062
21.3419
20.6288
18.6383
15.398
10.6174
3.87743
-5.25576
-16.5971
-29.3019
-39.4743
-44.9467
-45.0199
-40.9341
-35.1337
-28.8873
-22.8975
-16.7119
-11.6848
-6.39949
-3.14737
20.4564
19.7149
17.6334
14.2772
9.44472
2.79839
-5.91224
-16.4089
-27.6159
-36.8284
-41.8712
-42.3933
-39.2995
-34.2077
-28.4049
-22.749
-16.7676
-11.8549
-6.48037
-3.22114
19.7362
18.9728
16.8256
13.389
8.53284
1.9812
-6.37845
-16.2561
-26.3345
-34.7919
-39.4853
-40.3505
-38.0327
-33.465
-28.003
-22.5977
-16.7721
-11.9533
-6.52153
-3.26395
19.1891
18.41
16.2173
12.7268
7.85454
1.37845
-6.71065
-16.0948
-25.4894
-33.2384
-37.7189
-38.9552
-37.0938
-32.8992
-27.6917
-22.4768
-16.7714
-12.0288
-6.5599
-3.30277
18.8203
18.0313
15.8101
12.2871
7.40845
0.987142
-6.91277
-15.9882
-24.9014
-32.3264
-36.7389
-37.8575
-36.4277
-32.4992
-27.471
-22.3896
-16.7599
-12.0672
-6.57585
-3.32066
18.635
17.8407
15.6055
12.0669
7.18427
0.786213
-7.02303
-15.969
-24.5965
-31.8932
-36.2134
-37.2772
-36.1567
-32.3187
-27.3663
-22.3452
-16.7586
-12.0905
-6.58758
-3.33432
43.359
35.3681
39.9362
41.0455
45.7777
55.3937
38.3368
35.3671
38.1896
39.9958
44.244
52.1606
63.3357
79.3538
-34.0197
-25.1329
-12.1079
1.17585
4.13671
2.5354
35.7572
34.7143
36.2775
38.3923
41.3783
45.9592
47.0779
41.1579
-48.0763
-33.9799
-24.4537
-11.6639
-1.60748
0.727658
0.967207
34.2557
33.4419
34.4367
35.735
37.1018
37.9207
33.1643
17.2818
-78.7061
-124.82
-62.0262
-42.6508
-31.7889
-21.7255
-10.7688
-3.99585
-2.56557
-0.127525
32.6477
32.0226
32.4234
32.8684
32.7029
30.7863
21.8629
-6.88069
-68.2258
-109.572
-138.451
-104.651
-60.238
-44.0589
-32.5814
-21.9992
-12.1387
-5.81732
-3.60534
-0.854341
31.0354
30.4814
30.3692
30.0123
28.5946
24.6155
14.2006
-12.9279
-66.2343
-95.5143
-106.305
-86.9429
-57.2983
-43.1637
-32.3704
-22.3836
-13.4195
-7.38452
-4.35533
-1.42084
29.4175
28.8851
28.3313
27.2652
24.8156
19.6069
8.28174
-14.3607
-55.5968
-80.3786
-90.3514
-76.5042
-55.2848
-42.3795
-32.3247
-22.8796
-14.4697
-8.54222
-4.94355
-1.89184
27.8371
27.2941
26.3631
24.6942
21.4667
15.4746
4.0852
-15.6459
-48.082
-69.2013
-77.7624
-69.5757
-53.0629
-41.2003
-31.8227
-23.0674
-15.2125
-9.46719
-5.39116
-2.2519
26.3163
25.7496
24.5031
22.3421
18.5379
12.072
0.932088
-16.4109
-42.1947
-60.1473
-67.9878
-62.6138
-50.2108
-39.8552
-31.2575
-23.213
-15.8039
-10.199
-5.73121
-2.5395
24.8848
24.2871
22.7828
20.2315
16.0178
9.30409
-1.3816
-16.7317
-37.6636
-53.0514
-60.1002
-57.0237
-47.7024
-38.7283
-30.7025
-23.2557
-16.2102
-10.7525
-5.97973
-2.75652
23.5688
22.9312
21.2221
18.371
13.8785
7.0692
-3.09179
-16.8305
-34.1969
-47.414
-53.8951
-52.235
-45.1091
-37.3764
-30.0219
-23.159
-16.4564
-11.161
-6.16151
-2.92335
22.3832
21.7056
19.8375
16.7615
12.0886
5.28282
-4.34895
-16.7645
-31.4622
-42.9703
-48.9238
-48.2649
-42.8799
-36.2217
-29.462
-23.0767
-16.646
-11.4832
-6.30757
-3.05251
21.3421
20.6291
18.6393
15.3991
10.6182
3.87834
-5.25651
-16.6001
-29.3027
-39.4755
-44.9505
-45.0333
-40.9284
-35.1368
-28.8848
-22.8968
-16.7131
-11.6882
-6.3969
-3.14129
20.4564
19.715
17.6341
14.2778
9.44531
2.79921
-5.91263
-16.4112
-27.6167
-36.8279
-41.8763
-42.3998
-39.2959
-34.2096
-28.4014
-22.7464
-16.7674
-11.8568
-6.47881
-3.21665
19.7362
18.9729
16.8261
13.3894
8.5333
1.98154
-6.37879
-16.2572
-26.3352
-34.7911
-39.4893
-40.3543
-38.0312
-33.4612
-28.0005
-22.5963
-16.772
-11.9547
-6.52054
-3.26066
19.189
18.4101
16.2175
12.7269
7.85456
1.37817
-6.71135
-16.0958
-25.4896
-33.238
-37.7215
-38.9574
-37.0931
-32.8938
-27.6921
-22.4766
-16.7712
-12.0298
-6.55936
-3.30036
18.8202
18.0313
15.8102
12.2871
7.40832
0.986838
-6.91341
-15.9887
-24.902
-32.3257
-36.741
-37.8594
-36.4275
-32.4927
-27.4714
-22.3893
-16.7596
-12.0682
-6.57584
-3.31896
18.635
17.8406
15.6055
12.0668
7.18398
0.785717
-7.02389
-15.9694
-24.5972
-31.8927
-36.2151
-37.2778
-36.1572
-32.3149
-27.3653
-22.3449
-16.7579
-12.0912
-6.58782
-3.33286
43.3603
35.3645
39.9229
41.0589
45.7801
55.4236
38.337
35.3664
38.1797
39.9938
44.247
52.1568
63.3183
79.4596
-33.369
-24.0283
-12.5674
0.580629
4.34668
2.64846
35.7585
34.7083
36.2738
38.3885
41.3729
45.9519
47.0292
41.1615
-49.3928
-32.7122
-23.5532
-12.0542
-1.91925
0.725104
0.929756
34.2558
33.4387
34.4337
35.7322
37.0931
37.9148
33.1069
17.2655
-78.7191
-124.535
-63.8913
-43.2795
-31.251
-21.2817
-11.0882
-4.21784
-2.62888
-0.129619
32.6481
32.0202
32.4209
32.8661
32.6946
30.7825
21.8213
-6.88953
-68.2033
-109.532
-138.327
-104.457
-60.3105
-44.4449
-32.2833
-21.7693
-12.3036
-5.96655
-3.61023
-0.863138
31.0359
30.4796
30.3676
30.0104
28.5878
24.6134
14.1742
-12.9338
-66.2218
-95.5039
-106.243
-86.9594
-57.3514
-43.338
-32.2049
-22.2463
-13.5297
-7.49145
-4.3453
-1.42335
29.418
28.8836
28.3303
27.2638
24.8108
19.6062
8.26572
-14.3658
-55.5901
-80.3681
-90.327
-76.5214
-55.2472
-42.468
-32.2464
-22.8015
-14.5416
-8.61774
-4.92474
-1.88872
27.8375
27.2931
26.3625
24.693
21.4635
15.474
4.07359
-15.6497
-48.079
-69.2005
-77.7155
-69.6239
-53.0441
-41.2556
-31.7883
-23.0166
-15.2513
-9.51573
-5.37477
-2.24586
26.3166
25.7488
24.5028
22.3413
18.5353
12.0714
0.925917
-16.4154
-42.1924
-60.1476
-67.9645
-62.6557
-50.1729
-39.8843
-31.2421
-23.1861
-15.8289
-10.2314
-5.71889
-2.53191
24.8851
24.2865
22.7828
20.231
16.0158
9.30386
-1.38529
-16.7354
-37.6611
-53.0521
-60.0782
-57.0642
-47.6804
-38.7488
-30.6945
-23.2388
-16.2233
-10.7722
-5.97154
-2.74971
23.5692
22.931
21.2222
18.3706
13.8769
7.06854
-3.09427
-16.8337
-34.195
-47.414
-53.8818
-52.26
-45.0906
-37.3843
-30.0183
-23.1511
-16.4647
-11.1733
-6.15623
-2.91721
22.3835
21.7054
19.8376
16.7611
12.0874
5.28249
-4.35063
-16.7676
-31.4612
-42.9698
-48.9155
-48.2836
-42.8677
-36.2274
-29.4616
-23.0726
-16.6502
-11.4902
-6.30423
-3.04778
21.3421
20.629
18.6394
15.3988
10.6173
3.8778
-5.25775
-16.6022
-29.3014
-39.4741
-44.9459
-45.0458
-40.9203
-35.1399
-28.8845
-22.8956
-16.7164
-11.6927
-6.39482
-3.1375
20.4563
19.7149
17.6342
14.2775
9.4447
2.79893
-5.91332
-16.4128
-27.6159
-36.8258
-41.8754
-42.4068
-39.2912
-34.2116
-28.4019
-22.7454
-16.769
-11.8591
-6.47727
-3.21383
19.7362
18.9729
16.8261
13.3891
8.53293
1.98136
-6.37911
-16.2579
-26.3348
-34.7894
-39.4895
-40.3588
-38.0292
-33.4595
-28.0007
-22.5957
-16.7733
-11.9563
-6.51956
-3.25852
19.1889
18.4101
16.2176
12.7268
7.8542
1.37791
-6.71164
-16.0964
-25.489
-33.2369
-37.7222
-38.9598
-37.0921
-32.891
-27.6931
-22.4761
-16.772
-12.0309
-6.5586
-3.29875
18.8202
18.0313
15.8102
12.287
7.4081
0.98671
-6.91362
-15.9889
-24.9019
-32.3246
-36.7418
-37.8615
-36.4274
-32.4889
-27.472
-22.3883
-16.7601
-12.069
-6.57539
-3.31773
18.635
17.8406
15.6055
12.0667
7.1838
0.785527
-7.02428
-15.9695
-24.5974
-31.8918
-36.2159
-37.2789
-36.1578
-32.3117
-27.3656
-22.3442
-16.7582
-12.0918
-6.58762
-3.33176
43.3614
35.3619
39.9158
41.0764
45.7861
55.4676
38.337
35.3651
38.173
39.9969
44.2504
52.152
63.3046
79.5022
-33.373
-22.6138
-12.7075
-0.104591
4.35941
2.68346
35.7588
34.7051
36.2712
38.388
41.3694
45.9483
47.0009
41.1762
-50.0919
-32.3221
-22.2379
-12.1833
-2.23833
0.582898
0.877711
34.2553
33.4374
34.4324
35.7316
37.0884
37.9132
33.0755
17.2577
-78.7246
-124.41
-64.8557
-43.8662
-31.0575
-20.6454
-11.2512
-4.46621
-2.71833
-0.147223
32.6482
32.0191
32.4198
32.865
32.6897
30.7816
21.7957
-6.8938
-68.1721
-109.473
-138.248
-104.308
-60.3402
-44.792
-32.112
-21.4567
-12.3939
-6.12466
-3.63384
-0.886228
31.0363
30.4788
30.3669
30.0094
28.5834
24.6128
14.1555
-12.936
-66.1984
-95.4753
-106.2
-86.9294
-57.3805
-43.4916
-32.1001
-22.0714
-13.5955
-7.60093
-4.34922
-1.43646
29.4184
28.883
28.33
27.263
24.8074
19.6061
8.25346
-14.3684
-55.5814
-80.3561
-90.2931
-76.546
-55.206
-42.5461
-32.203
-22.7034
-14.59
-8.69544
-4.91584
-1.89509
27.8378
27.2926
26.3624
24.6923
21.4609
15.4733
4.06499
-15.653
-48.0734
-69.1966
-77.6733
-69.6605
-53.0291
-41.2985
-31.7693
-22.9566
-15.2792
-9.56598
-5.36496
-2.24787
26.3169
25.7484
24.5027
22.3406
18.5331
12.0704
0.920797
-16.4191
-42.1892
-60.1452
-67.9404
-62.692
-50.144
-39.8973
-31.2301
-23.1535
-15.8486
-10.2661
-5.71134
-2.53074
24.8851
24.2862
22.7826
20.2303
16.014
9.30322
-1.38859
-16.7389
-37.6584
-53.0533
-60.0511
-57.1002
-47.6621
-38.7586
-30.6897
-23.2197
-16.2341
-10.7934
-5.96591
-2.74739
23.569
22.9307
21.222
18.3698
13.8754
7.06791
-3.09657
-16.8368
-34.193
-47.4142
-53.8642
-52.2854
-45.0737
-37.3842
-30.0149
-23.1411
-16.4721
-11.1871
-6.15296
-2.91425
22.3835
21.7052
19.8374
16.7605
12.0863
5.28206
-4.35217
-16.7704
-31.4599
-42.9698
-48.9023
-48.3042
-42.8565
-36.2276
-29.4604
-23.0671
-16.6542
-11.4984
-6.30225
-3.04519
21.3421
20.6289
18.6393
15.3983
10.6165
3.87722
-5.25898
-16.6042
-29.3
-39.4733
-44.9372
-45.0602
-40.9129
-35.1383
-28.8829
-22.8928
-16.7196
-11.6983
-6.3939
-3.1352
20.4563
19.7148
17.6342
14.2771
9.44414
2.79853
-5.9141
-16.4145
-27.6151
-36.8244
-41.8706
-42.4161
-39.2872
-34.2094
-28.4023
-22.7443
-16.7708
-11.8624
-6.47655
-3.21202
19.7362
18.9728
16.8261
13.3888
8.53254
1.98108
-6.37959
-16.2589
-26.3343
-34.7882
-39.4871
-40.3648
-38.0273
-33.4573
-28.0006
-22.5949
-16.7747
-11.9585
-6.51923
-3.25714
19.1888
18.41
16.2175
12.7265
7.85385
1.37759
-6.71205
-16.0972
-25.4884
-33.2359
-37.7214
-38.9632
-37.091
-32.8893
-27.6938
-22.4758
-16.7731
-12.0322
-6.55822
-3.29774
18.8201
18.0312
15.8102
12.2868
7.40784
0.986502
-6.91389
-15.9892
-24.9016
-32.3234
-36.7415
-37.8641
-36.4273
-32.487
-27.4728
-22.3876
-16.7608
-12.07
-6.57506
-3.31695
18.6349
17.8405
15.6055
12.0666
7.18357
0.785313
-7.0246
-15.9697
-24.5974
-31.8909
-36.2157
-37.2803
-36.1585
-32.309
-27.3661
-22.3439
-16.7588
-12.0924
-6.58737
-3.33098
43.3616
35.3598
39.9115
41.0881
45.7911
55.4974
38.3365
35.3629
38.1689
39.9997
44.2519
52.149
63.2941
79.4725
-34.0269
-21.0456
-12.5194
-0.771931
4.19327
2.692
35.7584
34.7037
36.2685
38.3887
41.3668
45.9454
46.9911
41.1914
-50.4684
-32.8883
-20.6073
-12.0632
-2.52696
0.32611
0.829178
34.2549
33.4367
34.4312
35.7321
37.086
37.9137
33.063
17.2551
-78.7038
-124.359
-65.0875
-44.5473
-31.1141
-19.9359
-11.251
-4.71261
-2.83802
-0.169943
32.6481
32.0184
32.4189
32.8648
32.6872
30.7826
21.7848
-6.89412
-68.1377
-109.419
-138.203
-104.146
-60.2868
-45.1008
-32.0792
-21.093
-12.4097
-6.27048
-3.66889
-0.914136
31.0359
30.4783
30.3665
30.0092
28.5811
24.6137
14.1457
-12.9345
-66.1831
-95.4387
-106.173
-86.8744
-57.3765
-43.6198
-32.0748
-21.8693
-13.6133
-7.69632
-4.36073
-1.4564
29.4183
28.8828
28.3299
27.2629
24.8053
19.6068
8.24628
-14.3681
-55.5746
-80.3432
-90.2607
-76.5643
-55.1693
-42.6014
-32.1931
-22.5903
-14.6081
-8.76058
-4.91077
-1.90707
27.8378
27.2923
26.3624
24.6921
21.4592
15.4733
4.05954
-15.6551
-48.0685
-69.189
-77.642
-69.6751
-53.0116
-41.3285
-31.7654
-22.8908
-15.2905
-9.60692
-5.35611
-2.25462
26.3172
25.7481
24.5026
22.3404
18.5317
12.0699
0.917024
-16.4218
-42.1874
-60.1414
-67.9178
-62.7231
-50.1189
-39.9032
-31.2248
-23.1175
-15.8585
-10.2946
-5.70371
-2.53317
24.8853
24.2859
22.7826
20.23
16.0128
9.30296
-1.39106
-16.7417
-37.6564
-53.0555
-60.0237
-57.1309
-47.6476
-38.7634
-30.6895
-23.1999
-16.2396
-10.8104
-5.95924
-2.74767
23.5688
22.9305
21.222
18.3696
13.8745
7.0676
-3.09827
-16.8393
-34.1919
-47.4155
-53.8452
-52.3099
-45.0611
-37.3811
-30.013
-23.1301
-16.4762
-11.1985
-6.14908
-2.91324
22.3834
21.7051
19.8374
16.7602
12.0856
5.28185
-4.35322
-16.7727
-31.459
-42.9714
-48.8865
-48.3252
-42.8478
-36.2257
-29.46
-23.0613
-16.6565
-11.5049
-6.29936
-3.04383
21.3419
20.6287
18.6393
15.398
10.616
3.87689
-5.25983
-16.6061
-29.299
-39.4739
-44.9257
-45.0757
-40.9071
-35.1349
-28.8816
-22.8895
-16.7214
-11.7026
-6.39235
-3.13384
20.4564
19.7147
17.6341
14.2769
9.44377
2.79826
-5.91467
-16.4162
-27.6145
-36.8241
-41.8629
-42.427
-39.2841
-34.2061
-28.4021
-22.7429
-16.772
-11.8648
-6.4753
-3.21079
19.7362
18.9727
16.8261
13.3886
8.53229
1.98082
-6.38003
-16.2599
-26.3337
-34.7879
-39.4823
-40.3719
-38.0258
-33.4546
-28.0002
-22.5938
-16.7756
-11.9602
-6.51847
-3.2562
19.1888
18.4099
16.2175
12.7264
7.85361
1.37728
-6.71249
-16.0982
-25.4877
-33.2351
-37.7193
-38.9674
-37.09
-32.8871
-27.6941
-22.4755
-16.774
-12.0332
-6.55763
-3.29701
18.8201
18.0311
15.8101
12.2867
7.4076
0.986255
-6.91423
-15.9897
-24.9013
-32.3224
-36.7402
-37.8672
-36.4273
-32.4851
-27.4732
-22.3874
-16.7613
-12.0706
-6.57461
-3.31643
18.6349
17.8405
15.6054
12.0665
7.18334
0.785064
-7.02493
-15.97
-24.5973
-31.8903
-36.2148
-37.282
-36.1589
-32.3072
-27.3662
-22.3436
-16.7593
-12.0929
-6.58706
-3.3304
43.3611
35.3577
39.9082
41.0936
45.7943
55.5053
38.336
35.3603
38.1654
40.0007
44.2505
52.1452
63.2827
79.3994
-35.2111
-19.64
-11.9725
-1.42991
3.86382
2.66743
35.7572
34.7026
36.2654
38.3889
41.3635
45.9393
46.9813
41.1919
-50.5776
-34.2132
-19.1177
-11.6621
-2.80445
-0.0215538
0.790655
34.2541
33.4356
34.4295
35.732
37.0829
37.9105
33.0528
17.2504
-78.6571
-124.324
-64.8481
-45.2199
-31.4077
-19.2364
-11.0767
-4.94987
-2.99514
-0.196496
32.6476
32.0174
32.4175
32.8642
32.6841
30.7805
21.7767
-6.89502
-68.1019
-109.37
-138.189
-104.054
-60.1416
-45.3238
-32.2382
-20.711
-12.3486
-6.39825
-3.72061
-0.946107
31.0355
30.4776
30.3656
30.0087
28.5783
24.6123
14.1385
-12.9333
-66.1733
-95.4086
-106.146
-86.7983
-57.3267
-43.7202
-32.1453
-21.6557
-13.5856
-7.77378
-4.38364
-1.48358
29.4179
28.8823
28.3292
27.2624
24.8031
19.606
8.24095
-14.3674
-55.569
-80.33
-90.2257
-76.5569
-55.1279
-42.6388
-32.2265
-22.4745
-14.5983
-8.81028
-4.91166
-1.92531
27.8375
27.292
26.362
24.6917
21.4575
15.4726
4.05547
-15.6562
-48.0635
-69.1787
-77.6185
-69.6729
-52.9883
-41.3463
-31.7824
-22.8268
-15.2859
-9.63672
-5.34925
-2.26646
26.3171
25.7479
24.5023
22.34
18.5304
12.0693
0.914107
-16.4229
-42.1861
-60.1354
-67.8955
-62.7444
-50.0961
-39.904
-31.2295
-23.0826
-15.8581
-10.3148
-5.69647
-2.53942
24.8854
24.2857
22.7824
20.2298
16.0118
9.3025
-1.39299
-16.7432
-37.6548
-53.0571
-59.9968
-57.1507
-47.6349
-38.7637
-30.6944
-23.1818
-16.2394
-10.8218
-5.95228
-2.75061
23.5689
22.9303
21.2219
18.3694
13.8737
7.06715
-3.09964
-16.8408
-34.1913
-47.4169
-53.825
-52.3297
-45.0512
-37.3763
-30.0133
-23.1195
-16.4766
-11.2061
-6.14453
-2.91429
22.3835
21.7049
19.8373
16.7601
12.085
5.2815
-4.35401
-16.7742
-31.4582
-42.9739
-48.8685
-48.3431
-42.8412
-36.2226
-29.461
-23.0562
-16.6569
-11.509
-6.29562
-3.04377
21.342
20.6286
18.6392
15.3979
10.6156
3.87653
-5.26045
-16.6075
-29.2981
-39.4754
-44.912
-45.0896
-40.9026
-35.1309
-28.8812
-22.8863
-16.7217
-11.7052
-6.38999
-3.13344
20.4565
19.7146
17.634
14.2767
9.44346
2.79794
-5.9151
-16.4175
-27.614
-36.8248
-41.8527
-42.4377
-39.2818
-34.2026
-28.4022
-22.7415
-16.7722
-11.8661
-6.47349
-3.21022
19.7362
18.9726
16.826
13.3885
8.53205
1.98055
-6.38039
-16.2608
-26.333
-34.7883
-39.4756
-40.379
-38.0247
-33.4518
-27.9998
-22.5927
-16.7757
-11.961
-6.51723
-3.25572
19.1887
18.4098
16.2174
12.7263
7.85339
1.37699
-6.71281
-16.0992
-25.4871
-33.2346
-37.7162
-38.9717
-37.0892
-32.8846
-27.694
-22.4751
-16.7743
-12.0337
-6.55678
-3.29653
18.82
18.0311
15.81
12.2865
7.4074
0.986017
-6.91448
-15.9902
-24.9008
-32.3218
-36.738
-37.8702
-36.4273
-32.4832
-27.4732
-22.3871
-16.7614
-12.0709
-6.57409
-3.31606
18.6348
17.8404
15.6054
12.0664
7.18313
0.784822
-7.02522
-15.9704
-24.597
-31.8898
-36.2132
-37.2839
-36.1593
-32.3056
-27.3659
-22.3432
-16.7594
-12.0933
-6.58671
-3.32994
43.3602
35.3558
39.9052
41.0949
45.7943
55.5031
38.3351
35.3577
38.1626
40.0003
44.2476
52.1378
63.2693
79.3248
-36.8501
-18.4695
-11.0403
-2.04577
3.38651
2.60865
35.7559
34.7013
36.2624
38.3879
41.3596
45.9308
46.968
41.1786
-50.1149
-36.1184
-17.8455
-10.8355
-3.05914
-0.40277
0.764743
34.253
33.4344
34.4276
35.731
37.0792
37.9048
33.0422
17.2431
-78.6016
-124.301
-64.2337
-45.6356
-32.0217
-18.5973
-10.7193
-5.15896
-3.17193
-0.226434
32.6471
32.0164
32.4157
32.8628
32.6806
30.7762
21.7695
-6.89747
-68.0708
-109.324
-138.194
-103.967
-59.9418
-45.4371
-32.5822
-20.3413
-12.2067
-6.49739
-3.77868
-0.983062
31.035
30.4768
30.3643
30.0076
28.5754
24.6093
14.1322
-12.933
-66.1616
-95.3894
-106.126
-86.7145
-57.2442
-43.7831
-32.3065
-21.4511
-13.5111
-7.82892
-4.41781
-1.51638
29.4174
28.8816
28.3282
27.2614
24.8008
19.6038
8.2364
-14.367
-55.5638
-80.3195
-90.1941
-76.5307