/*--------------------------------*- C++ -*----------------------------------*\
  =========                 |
  \\      /  F ield         | OpenFOAM: The Open Source CFD Toolbox
   \\    /   O peration     | Website:  https://openfoam.org
    \\  /    A nd           | Version:  10
     \\/     M anipulation  |
\*---------------------------------------------------------------------------*/
FoamFile
{
    format      ascii;
    class       surfaceScalarField;
    location    "2000";
    object      phi;
}
// * * * * * * * * * * * * * * * * * * * * * * * * * * * * * * * * * * * * * //

dimensions      [0 3 -1 0 0 0 0];

internalField   nonuniform List<scalar> 
164653
(
-2.72133
30.3294
73.0924
2.66366
0.280781
-29.8955
29.767
70.0108
0.0129828
0.162303
-0.120562
-0.244877
0.09594
-29.6722
29.3979
70.587
0.382437
0.236296
-0.215073
-0.159839
-0.691273
-7.72051
7.80814
18.5349
0.702009
-0.130307
-6.8789
6.65575
16.5501
0.287639
-3.93002
5.3354
0.110778
14.3178
-0.0700277
-16.2569
123.899
16.0905
300.384
10.7696
-123.538
122.857
-10.0657
296.938
4.67859
-121.882
121.63
-4.04051
295.047
-3.21672
-121.934
120.859
13.317
297.502
-3.2232
-2.55076
-3.27663
-3.63456
-119.732
118
18.5073
296.808
-4.03737
-4.67465
-5.16784
-5.20033
-115.125
110.52
28.5072
291.309
-5.92504
-5.59483
-6.80368
-17.8343
78.3085
282.322
-11.2842
-20.4223
-12.6673
-98.7025
24.5628
24.5483
25.1219
25.1669
-4.9233
-21.7773
23.372
72.7603
-7.37442
-6.27043
-8.99548
5.23011
7.3274
7.50163
5.58799
-0.820303
1.16246
4.77704
-0.0234713
-0.655474
-2.63362
54.5433
0.668974
2.28704
0.644312
-2.03985
1.45677
-0.0622205
-0.0444718
0.450606
0.440238
-1.28655
6.78973
60.2868
-3.83051
0.409419
0.442805
0.444368
-1.26527
-1.41919
-1.45907
0.461159
-9.71118
10.873
55.705
-1.97738
0.487353
-0.0272834
-0.0792227
0.272439
-13.2535
13.8983
55.1748
-1.53314
0.280749
0.191081
0.111786
1.98093
-17.4041
18.2
60.4724
-2.52442
508.194
-8.03351
1233.81
-16.0868
5.08316
4.69243
24.8881
503.125
-43.1363
1223.89
9.52391
9.67361
17.3035
14.8476
503.834
-3.55452
1218.27
3.32674
-7.87799
9.27388
3.2118
498.473
37.0092
1224.59
-13.9014
-16.2603
2.6944
-2.92574
489.118
56.8574
1227.37
-20.0579
-23.2851
-5.88497
-2.04662
459.06
176.682
1207.64
-32.1733
-66.473
-21.0931
-55.1932
112.107
273.648
1218.68
113.376
108.984
111.998
-83.9057
-70.888
-62.2836
-94.7044
-28.6628
118.853
301.285
29.6171
28.5919
26.7684
29.959
-31.8375
-30.8616
-37.7983
-0.264222
-0.107162
3.92584
0.328793
3.24273
-61.9862
83.6472
-39.3625
214.229
3.73297
4.33459
6.54325
8.17431
-95.721
105.268
-40.0485
250.592
7.41876
8.11527
7.13915
27.5896
-112.331
117.31
-32.5941
279.425
4.58221
-115.483
124.773
-0.115584
273.915
17.26
-127.54
129.272
-19.2737
292.532
6.66144
-130.674
131.02
-7.30004
290.8
515.599
-7.3542
1249.64
513.023
-38.0238
1250.34
511.823
0.370283
1247.2
509.169
40.5778
1249.59
508.657
70.5099
1247.24
502.822
194.084
1249.34
133.929
239.219
1267.74
141.683
121.318
135.889
-88.648
131.421
83.7998
301.451
-41.6597
-36.9135
40.3613
72.4558
38.4039
-13.2251
10.2869
2.85731
17.2672
0.134877
1.87949
-7.87573
34.5075
-9.5465
64.3842
2.33573
1.87107
2.31755
-7.88276
-8.52578
-8.66719
5.12787
-35.4469
145.796
-8.78287
276.589
-2.75013
3.76511
-0.521861
-36.8743
-36.3743
-38.0536
590.683
-209.378
1138.08
44.8674
42.459
54.4191
56.1013
-131.013
-151.426
-130.382
-151.811
575.696
-175.457
1212.71
40.0229
37.5399
56.4271
52.4894
577.224
-75.5181
1203.18
32.7148
3.39941
43.3929
15.433
561.081
-68.4848
1248.34
-12.2461
11.4083
25.09
36.2417
562.514
-30.0199
1194.94
20.2194
10.5957
27.0812
-0.221228
-7.3847
1225.45
7.33812
14.7523
-3.5549
-8.67899
523.307
-6.76442
1268.37
521.895
-33.7212
1270.04
521.772
3.49772
1267.51
521.071
42.6367
1269.29
520.253
71.9502
1266.86
527.476
186.841
1270.56
555.887
208.926
1250.06
150.481
345.716
1255.83
-92.7565
-134.92
-96.2152
-102.83
150.306
163.909
163.177
-139.806
163.528
129.776
307.155
-13.6434
176.681
49.9306
299.834
-13.1272
-13.9257
-12.7839
-173.833
-7.58537
-45.9731
46.8981
75.7769
6.66145
5.30043
-176.188
169.061
-0.22606
308.807
6.0901
-7.07228
-5.29158
33.4064
-163.062
158.626
-29.412
300.695
619.638
-116.003
1218
11.5403
29.4018
18.6247
27.5747
-147.548
-151.319
-158.815
-154.296
608.476
-189.204
1230.87
587.992
-140.126
1235.64
566.121
-85.8284
1246.67
574.641
-115.803
1255.03
575.341
-31.5598
1252.41
-9.58854
1254.28
529.879
-6.19537
1284.35
529.296
-29.9309
1286.33
530.234
5.7875
1284.2
531.43
43.0868
1285.73
533.923
70.4548
1283.35
546.105
174.997
1287.16
573.935
180.266
1270.23
649.579
267.863
1269.66
683.559
209.892
1271.66
-117.582
-67.0475
-49.547
-18.8215
176.536
122.28
1231.85
-46.7959
-38.7931
-24.3828
-22.2723
175.424
177.666
175.913
-9.58037
177.619
6.28296
313.061
662.221
-60.3483
1284.25
-4.03038
17.6821
7.95647
35.6578
-174.716
-173.675
-174.403
-172.907
664.22
-37.9594
1258.95
25.6109
11.2086
-3.39847
3.40864
630.842
-52.6054
1254.92
611.93
-171.87
1262.09
598.474
-125.303
1261.15
592.603
-77.6635
1268.06
584.562
-109.624
1275.98
583.892
-31.0985
1274.6
-27.2742
1277.52
535.572
-5.63811
1298.2
535.622
-26.5915
1300.22
537.521
7.21519
1298.36
547.807
53.2338
1299.82
544.99
93.7092
1296.94
569.374
180.157
1301.95
587.251
206.25
1288.52
630.342
226.207
1291.29
669.796
173.293
1280.79
694.851
98.3726
1267.66
685.968
2.71401
1261.32
-5.02184
5.33434
9.47689
15.4836
666.67
-37.3195
1268.07
654.131
-25.2701
1271.66
650.466
-110.198
1332.8
616.606
-175.486
1320.03
604.251
-111.393
1279.78
598.502
-69.6926
1284.73
589.437
-102.051
1292.39
587.951
-29.6133
1292.16
-14.514
1296.04
540.6
-5.06261
1310.37
541.142
-23.5244
1312.3
543.845
7.97684
1310.64
546.456
50.2994
1312.06
559.143
94.2314
1308.64
586.742
111.461
1352.51
590.816
152.052
1359.32
629.009
187.642
1304.09
662.172
143.302
1298.98
680.635
81.4437
1289.05
676.541
6.65328
1293.98
665.729
-23.8636
1288.7
653.128
-14.6218
1290.61
638.193
-82.5921
1311.49
619.34
-115.543
1283.99
608.308
-98.5611
1296.57
602.876
-62.1246
1300.49
593.379
-93.7208
1307.67
591.209
-27.5544
1308.01
-14.0201
1312
554.303
8.94261
1321.24
555.75
25.3283
1322.99
556.446
51.4207
1321.58
552.904
71.2218
1322.97
560.01
85.5087
1319.52
580.347
99.5073
1301.24
600.887
139.721
1329.06
633.395
190.077
1317.29
655.597
145.458
1314.03
671.822
67.0452
1306.27
669.913
8.62376
1311.78
655.2
12.7213
1286.96
651.781
2.31353
1291.8
628.753
-70.5803
1324.98
627.801
-94.2674
1300.17
611.388
-67.9443
1310.8
606.287
-54.8997
1314.09
596.481
-84.916
1320.63
602.456
-15.014
1321.17
13.4056
1325.16
547.81
8.07819
1331.08
549.536
23.0908
1332.67
553.179
46.6933
1331.48
558.469
64.2771
1332.86
566.158
76.2861
1329.7
586.809
86.3378
1314
593.114
119.786
1340.48
620.164
160.258
1329.92
650.319
122.187
1326.71
664.434
54.9209
1320.2
664.38
9.0313
1325.52
662.884
15.5658
1319.69
650.975
4.8723
1327.33
629.743
-59.5618
1336.45
623.217
-81.2707
1313.9
613.756
-58.6177
1323.04
608.867
-47.889
1326.11
598.821
-75.7746
1332.21
595.582
-13.4247
1332.75
11.7043
1336.57
551.545
7.17423
1340.07
553.497
20.6107
1341.5
557.566
41.5123
1340.57
563.321
56.8577
1341.97
571.342
66.7567
1339.28
580.74
104.166
1311.7
597.242
122.53
1326.33
626.763
118.627
1351.63
652.291
102.805
1348.18
662.481
70.5962
1332
659.627
21.739
1337.02
660.246
17.1671
1332.54
649.765
8.3287
1339.56
631.288
-50.2064
1346.6
624.444
-69.3178
1327.35
622.891
-42.5109
1333.98
611.147
-20.9749
1337.06
601.023
-66.48
1342.54
597.172
-11.7625
1343.05
10.1581
1346.7
555.01
6.23468
1348.37
557.135
17.9705
1349.66
561.513
36.0522
1348.97
567.595
49.1074
1350.39
575.702
57.1321
1348.03
584.941
88.2665
1346.35
600.412
103.16
1350.36
623.155
97.3923
1349.01
640.297
84.4811
1345.22
652.595
58.211
1342.25
657.645
20.9618
1347.01
659.538
24.7279
1343.86
648.623
16.4346
1350.43
622.181
-0.368095
1323.45
625.469
-43.1214
1314.69
617.976
-35.4129
1343.27
613.114
-17.3625
1347.03
602.928
-57.0256
1351.99
598.571
-10.0009
1352.48
8.69044
1355.92
558.21
5.24458
1356.11
560.478
15.1469
1357.26
565.102
30.3367
1356.83
571.387
41.1202
1358.21
579.328
47.5646
1355.4
588.786
72.687
1355.39
603.199
84.4092
1358.49
622.999
78.3528
1357.79
636.481
65.5469
1353.35
649.284
40.7197
1351.9
652.685
17.7034
1356
654.871
21.9785
1354.02
647.704
15.6579
1360.27
640.405
1.32089
1360.65
626.247
-31.4943
1358.97
619.294
-28.0685
1348.42
614.847
-14.0576
1356
604.695
-47.5366
1360.72
599.935
-8.24984
1361.13
7.27738
1364.37
561.222
4.22734
1363.37
563.574
12.244
1364.37
568.391
24.4563
1364.19
574.743
33.0426
1365.39
575.923
45.899
1354.46
592.113
53.1354
1356.08
605.83
66.3391
1366.41
623.228
61.0282
1365.59
637.94
50.6649
1361.48
647.102
31.7392
1360.67
650.663
14.3958
1364.01
660.412
-7.28709
1381.57
647.254
4.62885
1385.64
640.552
2.0919
1369.48
629.111
-23.84
1371.33
620.764
-22.1036
1357.64
616.574
-10.9691
1364.39
606.512
-38.0447
1368.79
601.284
-6.53084
1369.19
5.88274
1372.26
564.034
3.18928
1370.22
566.464
9.25355
1371.06
571.408
18.4444
1371.14
577.824
24.839
1372.27
585.713
33.0858
1371.86
595.495
35.9928
1374.14
608.412
49.2128
1374.11
624.155
44.6866
1372.86
637.374
37.1661
1369.21
646.122
23.1261
1368.76
650.33
10.5263
1371.33
648.528
-4.72402
1369.29
647.238
4.13311
1371.64
641.065
2.21323
1377.67
630.29
-17.6152
1379.58
622.332
-16.2705
1366.35
618.31
-8.02646
1372.62
608.299
-28.529
1376.36
602.681
-4.82298
1376.62
4.47135
1379.62
566.705
2.15316
1376.72
569.185
6.19984
1377.42
574.227
12.3366
1377.77
580.729
16.5929
1378.98
591.716
24.0976
1379.21
598.744
29.2009
1381.48
611.102
32.589
1381.09
625.118
29.3801
1379.61
637.559
24.3442
1376.48
645.547
15.2951
1376.15
649.662
6.8933
1378.05
648.81
-3.04817
1376.73
647.744
3.06322
1379.74
641.899
1.81381
1385.29
628.439
-14.9818
1385.77
624.001
-18.1674
1375.04
620.213
-5.23092
1380.44
610.26
-19.0227
1383.54
604.3
-3.16599
1383.66
3.01491
1386.62
569.239
1.07829
1382.92
571.734
3.1159
1383.44
576.843
6.18382
1384.05
583.417
8.30454
1385.38
591.609
12.0491
1386.16
601.887
14.6473
1387.9
613.907
16.2241
1387.65
626.575
14.6897
1386.01
638.449
11.9404
1383.35
646.305
7.60138
1383.1
650.173
3.51812
1384.36
649.669
-1.64458
1383.7
648.635
1.65957
1387.28
643
1.03051
1392.42
632.82
-8.80482
1391.28
625.721
-9.52293
1383.13
622.171
-2.59075
1387.91
612.321
-9.53359
1390.39
605.945
-1.58745
1390.46
1.51348
1393.33
571.636
1388.81
574.141
1389.16
579.293
1390.02
585.91
1391.43
594.663
1392.71
605.008
1394.03
616.771
1393.78
628.716
1391.89
640.011
1389.7
647.772
1389.48
651.804
1390.09
651.133
1390.12
650.087
1394.31
644.548
1398.97
634.088
1394.6
627.623
1387.76
624.185
1394.43
614.364
1396.19
607.579
1396.15
1398.83
-72.836
-0.259082
30.2458
0.217437
72.6969
-71.1096
2.34145
-30.1801
30.0793
-2.15634
71.0253
-71.715
1.27255
-30.0916
30.029
-1.27221
71.7772
-66.1965
7.29329
-28.0128
26.8728
-5.67534
65.7186
-68.9038
-28.4968
26.206
-0.65364
66.0314
5.81679
-58.3885
-23.4631
22.0862
-1.911
58.7456
2.93077
0.996052
-300.105
123.866
-0.844716
299.974
3.39963
-296.989
122.679
-2.60919
296.966
-123.447
0.575368
-294.057
-121.659
120.892
0.903574
293.345
3.41553
-296.282
-120.476
121.045
-2.65357
294.951
0.799837
-301.763
-122.649
120.576
-0.142867
303.179
-10.0056
-293.309
-116.037
111.1
16.0348
292.217
-288.228
3.99683
102.238
1.07433
286.011
3.30122
0.515897
-0.147131
-108.762
-73.5324
-7.3676
-24.6693
24.6112
7.44907
73.5089
-24.1955
-4.0364
1.4812
23.8772
2.87358
-53.8551
1.80272
-0.39027
-5.50735
53.4968
4.45322
-57.5581
6.22655
-5.1088
7.0545
-8.17873
57.5645
-57.3501
1.65605
-9.61587
52.1074
-13.3247
232.755
2.37033
2.08532
2.35368
-13.5318
-9.5235
-13.6267
-54.5826
-62.2683
-59.5046
-56.7543
4.68583
-13.7239
14.9213
-5.92957
56.8007
-245.636
15.9399
-71.237
78.0022
-60.4014
244.163
14.0842
12.2785
12.8069
504.006
4.75114
1228.25
0.474158
5.40727
-1.51768
-1.77969
500.282
9.07464
1224.54
2.09111
0.120201
-3.52992
-4.68279
496.937
22.0844
1218.36
-1.8775
-0.594929
-7.18453
-9.17104
494.058
23.3887
1225.56
1.97543
0.0497068
-10.889
-12.6184
482.617
56.6653
1226.76
-1.42799
-7.16972
-15.9954
-20.0239
473.023
102.722
1207.35
-20.3371
-14.8046
-28.0359
-29.6618
132.018
144.184
1185.77
133.027
135.396
124.757
-8.62207
-66.9284
-40.5587
-47.3367
-310.13
-86.2029
71.4035
320.838
37.3537
32.3415
32.4323
33.9817
-20.6611
-0.518036
-7.15567
24.6063
3.7285
29.684
-63.1862
-217.794
85.4721
-51.1682
216.993
39.7753
-252.71
-99.0856
108.602
-48.3438
251.762
40.9639
-280.298
-114.311
118.494
-45.0278
280.179
129.212
-199.298
1203.13
18.8975
36.4666
52.6307
56.4087
-291.048
-291.984
-299.329
-297.885
-122.475
-133.952
-121.844
-133.561
132.595
129.7
132.336
39.737
-292.675
129.078
-41.6453
294.718
-199.228
1164.09
64.9656
49.8264
38.3257
44.6104
-291.887
-292.082
-294.641
-294.616
-127.568
-131.122
-128.75
-132.873
514.372
4.80447
1249.42
512.265
11.6423
1249.88
511.185
24.6949
1245.67
509.211
27.218
1247.73
503.492
62.8189
1246.8
513.991
106.308
1235.26
141.344
148.049
1216.97
150.054
132.665
136.836
-297.21
-63.4706
141.636
57.0134
303.375
-70.4196
-36.3439
-36.8577
43.528
27.842
72.2512
-62.4414
-42.952
35.4423
1.93659
61.9031
6.11146
-61.1917
1.15847
-8.18629
34.2247
-5.38247
61.1398
1.01459
-0.0261679
-0.846338
-8.26175
-6.9557
-6.68711
567.91
-257.471
1175.74
-128.875
-150.767
-126.101
-141.085
61.4673
70.1293
48.3595
44.6509
-289.906
-280.313
-296.332
-297.405
585.53
-242.954
1179.69
57.4517
44.2287
43.5103
38.5339
570.506
-163.184
1208.95
48.4203
52.5831
40.3283
40.6388
576.315
-131.494
1205.82
44.6346
11.4234
36.3644
30.619
564.244
-172.194
1233.3
546.844
-168.064
1222.3
43.2099
43.7238
41.6276
29.5414
-204.119
1216.34
522.022
4.68243
1267.99
521.09
13.0735
1269.54
521.027
26.3551
1265.91
520.776
29.8612
1266.9
520.3
64.534
1265.62
537.53
103.471
1256.17
570.819
123.761
1241.06
163.146
246.33
1262.77
-70.3026
-74.8206
-83.7321
-94.604
162.13
158.2
157.529
-71.2162
173.716
58.2835
313.604
-311.241
-299.756
-29.2028
-175.277
175.229
29.4677
299.539
-295.657
3.07579
178.647
-6.7503
292.746
5.47573
-0.632251
1.41608
-178.321
7.05008
-176.428
-298.41
172.083
-4.5828
291.881
2.95956
5.61635
-0.169896
606.03
-116.403
1187.65
20.958
38.9881
52.3195
89.5278
-166.03
-166.785
-164.329
-164.888
-302.639
-302.765
-306.071
-305.564
594.385
-189.547
1161.72
603.899
-220.698
1199.1
588.018
-148.44
1236.78
580.021
-120.602
1243.77
574.633
-165.018
1253.24
566.921
-162.098
1254.16
-196.178
1242.82
528.57
4.47119
1283.93
528.445
13.7048
1285.82
529.407
27.0329
1282.56
530.955
30.9478
1283.1
533.929
63.3076
1281.61
556.212
97.4542
1270.89
589.658
99.7421
1260.81
637.406
196.976
1271.27
674.022
162.347
1267.09
-47.2204
-24.435
-72.2129
-50.5276
696.185
103.496
1237
-27.7482
-25.9168
-41.3736
-35.7635
686.781
-7.70949
1242.44
7.14263
15.3339
-8.72195
6.55615
-313.301
-309.731
-313.644
-308.959
668.48
-65.0932
1266.26
0.171756
33.7085
13.2874
54.2177
643.172
-79.06
1246.91
610.881
-175.896
1273.56
612.077
-202.902
1243.1
597.489
-133.753
1261.05
590.25
-110.102
1264.8
584.129
-155.676
1272.76
575.704
-153.599
1274.53
-185.785
1265.28
534.264
4.2255
1297.74
534.74
13.7924
1299.66
536.645
26.8343
1296.65
539.645
30.7825
1296.98
545.178
60.0894
1294.63
573.513
90.2566
1280.81
599.355
79.1798
1283.24
641.881
156.207
1289.53
668.464
129.507
1287.05
689.036
84.6407
1265.95
679.719
-10.2856
1273.21
663.553
-46.3547
1265.5
649.74
-63.2101
1269.62
646.766
-136.735
1296.61
616.383
-117.032
1264.55
602.88
-119.742
1279.27
596.057
-99.7934
1281.24
578.428
-110.905
1265.25
580.154
-130.748
1267.58
-173.819
1283.4
539.295
3.9097
1309.92
540.233
13.4289
1311.72
542.917
25.8818
1308.91
547.06
29.5819
1309.12
554.139
55.5455
1306.1
599.302
108.614
1288.99
602.731
133.689
1301.38
639.173
123.019
1300.84
660.96
102.962
1303.74
678.794
68.9504
1286.91
673.733
-6.31207
1295.07
662.706
-32.9986
1286.37
651.127
-49.8089
1288.78
632.525
-119.814
1313.17
618.851
-102.163
1282.8
606.688
-106.473
1295.46
600.418
-89.8678
1296.84
593.922
-102.066
1305.32
583.93
-120.651
1307.91
-160.654
1299.15
543.787
3.57933
1320.78
545.103
12.7029
1322.4
548.409
24.3383
1319.82
553.379
27.6516
1319.93
561.247
50.2717
1316.93
573.782
95.9572
1301.36
606.437
113.041
1317.06
636.641
96.978
1313.12
654.446
81.5887
1317.59
670.156
55.6504
1303.86
667.134
-3.46873
1311.95
649.338
-32.0882
1303.85
650.803
-65.9402
1306.47
632.519
-104.049
1327.5
620.756
-89.0032
1298.77
609.746
-94.0035
1309.34
603.831
-80.1584
1310.3
596.985
-92.6775
1318.09
586.959
-109.837
1320.39
-146.553
1312.27
547.86
3.22953
1330.58
549.474
11.7381
1332.02
553.264
22.3449
1329.68
558.854
25.1655
1329.76
567.137
44.5987
1327.09
580.045
82.9772
1314.08
609.26
95.5248
1328.78
634.37
75.4848
1326.3
649.179
64.3818
1329.11
662.843
44.7358
1317.45
661.771
-1.99278
1325.12
655.219
-21.9698
1316.12
650.42
-53.4585
1319.65
633.137
-89.4234
1339.11
622.417
-76.8353
1312.45
612.191
-82.0978
1321.36
606.516
-70.6271
1322.25
599.384
-82.8733
1329.54
589.394
-98.5012
1331.4
-131.755
1323.79
551.577
2.88262
1339.52
553.445
10.5766
1340.79
557.608
20.018
1338.74
563.603
22.3403
1338.8
572.097
38.7564
1336.63
580.539
58.8442
1327.39
611.119
52.1977
1339.07
635.17
62.9242
1340.14
644.917
65.5996
1337.21
657.095
35.6339
1328.92
657.249
-1.23729
1336.12
664.791
-52.8963
1355.93
649.445
-56.0058
1357.45
633.888
-76.3874
1349.12
623.744
-65.2601
1325.92
614.185
-70.7762
1332.22
608.899
-61.3855
1333.1
601.53
-72.8486
1339.88
591.703
-86.7787
1341.16
-116.345
1334.01
555.012
2.49768
1347.82
557.075
9.25966
1348.91
561.504
17.4481
1347.11
567.794
19.2658
1347.18
576.347
32.9236
1345.31
595.968
48.4352
1337.14
611.891
41.5828
1345.05
625.31
48.8605
1349.66
641.539
52.2384
1342.35
652.578
28.0389
1338.81
653.58
-0.787404
1345.56
648.27
-43.9252
1340.2
648.704
-46.0259
1340.02
608.829
-38.3874
1325.33
624.545
-81.2512
1314.97
615.937
-59.8951
1341
611.02
-52.2469
1342.81
603.427
-62.6017
1349.34
593.821
-74.7925
1350.1
-100.503
1343.47
558.202
2.11297
1355.54
560.418
7.83667
1356.47
565.044
14.7328
1354.92
571.549
16.1004
1354.87
580.212
27.4488
1352.21
597.872
39.1683
1347
612.831
32.5434
1352.57
624.378
37.5746
1357.52
639.325
40.6752
1349.97
649.152
21.7077
1348.4
650.772
-0.540243
1354.13
647.401
-35.8175
1349.28
648.15
-37.1088
1350.6
640.301
-30.678
1360.79
621.02
-57.2312
1354.23
617.355
-48.6139
1340.81
612.873
-43.2966
1351.53
605.187
-52.289
1358.1
595.887
-62.6306
1358.27
-84.3105
1352.17
561.196
1.69842
1362.79
563.516
6.33732
1363.55
568.294
11.871
1362.27
575.011
12.9184
1361.85
581.336
19.268
1356.32
599.851
20.0726
1356.66
613.721
24.674
1360.41
624.246
28.2084
1364.44
637.901
30.6347
1357.87
646.837
16.3762
1357.07
648.845
-0.314284
1361.78
656.159
-19.2688
1357.7
647.882
-3.37571
1360.18
640.809
-23.6946
1369.57
627.685
-45.3106
1372.54
619.047
-39.1194
1356.79
614.733
-34.518
1359.93
606.907
-41.9042
1366.23
597.918
-50.2762
1365.82
-67.8187
1360.3
564.007
1.27556
1369.63
566.407
4.78278
1370.22
571.273
8.94484
1369.2
578.149
9.67722
1368.63
590.606
14.6828
1363.99
601.867
14.5821
1368.37
614.524
17.7136
1368.41
624.845
19.9019
1370.84
637.128
22.0485
1365.52
645.707
11.524
1365.03
648.589
-0.55533
1368.69
646.885
-13.7589
1365.48
648.051
-1.97845
1369.08
641.549
-17.2579
1377.73
629.76
-34.4785
1380.54
620.836
-29.1755
1365.33
616.592
-25.7959
1368.14
608.683
-31.4682
1373.84
600.009
-37.8368
1372.85
-51.1375
1367.93
566.657
0.845123
1376.11
569.121
3.20411
1376.53
574.033
5.99703
1375.81
580.835
6.43297
1375.43
592.837
9.11582
1372.78
603.273
9.22904
1376.39
615.396
11.3814
1375.3
625.456
12.7389
1376.71
637.109
14.1921
1372.69
644.98
7.49964
1372.3
648.016
-0.536651
1374.99
647.254
-9.10571
1372.83
648.778
-1.05193
1377.29
642.716
-11.2388
1385.33
631.358
-24.3606
1387.01
622.805
-19.2097
1373.63
618.633
-17.1492
1375.96
610.641
-21.0047
1381.07
602.286
-25.2981
1379.48
-34.232
1375.2
569.177
0.421512
1382.31
571.677
1.59206
1382.56
576.603
2.98852
1382.13
583.289
3.20714
1381.92
593.886
4.41648
1380.26
604.426
4.49473
1382.1
616.329
5.52205
1381.61
626.577
6.32359
1382.17
637.806
6.84414
1379.47
645.574
3.68927
1379.14
648.738
-0.215519
1380.87
648.26
-4.71067
1379.78
649.911
-0.44683
1385.03
644.163
-5.55449
1392.48
633.039
-15.3588
1393.4
624.835
-9.56545
1381.69
620.726
-8.56806
1383.44
612.654
-10.5105
1387.97
604.638
-12.6898
1385.87
-17.1786
1382.21
571.569
1388.2
574.087
1388.24
578.999
1388.09
585.604
1388.03
595.153
1387.57
605.601
1388.08
617.31
1387.59
628.37
1387.15
639.157
1385.75
646.88
1385.45
650.562
1386.19
649.908
1386.06
651.554
1392.21
645.962
1399.01
631.549
1393.65
627.038
1382.71
622.88
1390.02
614.698
1393.86
606.986
1391.17
1388.04
-72.5853
-0.593673
30.154
0.472738
72.5467
-70.931
-0.12506
-30.0641
29.9889
0.209847
70.9214
-71.9013
-0.593226
-30.1114
30.114
0.556588
71.9352
-66.3046
-1.33073
-28.1045
26.8669
2.47816
66.3949
-65.4849
-29.1419
25.9736
3.33316
65.4882
-0.168034
-58.9488
-23.3941
22.5595
1.27323
58.9583
-0.448058
-1.49346
123.693
1.74461
299.813
-299.921
-2.75886
-296.871
-123.298
122.572
3.59168
296.764
-5.5959
-293.005
-121.482
120.349
6.84245
292.891
-15.4862
-294.34
-119.457
120.456
14.7385
294.089
-16.2142
-303.344
-122.758
120.658
18.5002
303.159
-20.7646
-291.592
-115.739
109.911
26.8882
291.297
-10.4246
-284.728
99.8815
52.4818
284.664
-11.5303
-11.8827
-12.8143
-105.647
-75.3837
-22.9885
-23.5155
25.1773
20.928
75.7825
-23.0659
-3.29821
4.05346
22.8912
-0.580551
-53.1677
1.43565
0.0693146
-2.29516
53.074
0.883921
-58.032
1.61253
-5.69085
7.85209
-3.88842
58.1466
-241.595
12.3321
-11.1171
60.2359
-54.4582
247.055
12.6412
8.77943
8.94193
-15.372
-11.6315
-15.812
-58.0518
3.81961
-15.4992
16.1269
-5.13703
58.7416
-243.766
3.75968
-77.9477
82.8918
-20.3987
243.699
4.856
3.15286
3.7537
505.036
10.4146
1228.2
-2.2178
-2.78601
-1.6599
-2.5892
500.969
22.3707
1224.19
-4.11056
-4.80626
-4.014
-5.02157
498.518
41.3473
1217.96
-7.66698
-11.2995
-7.94784
-11.5782
496.574
65.9105
1225.57
-14.7593
-17.2958
-15.0484
-16.8681
484.416
98.5496
1227.18
-20.6998
-23.2777
-20.1065
-22.7276
468.879
158.486
1207.12
-31.3849
-39.4496
-31.1296
-40.7542
115.246
277.8
1181.58
121.059
114.627
120.545
-58.0602
-77.2369
-60.9375
-79.9751
-296.72
-114.662
112.696
294.676
30.7606
29.0356
30.6045
28.8554
-30.6158
-5.83336
31.6107
4.37759
0.460848
15.7656
-67.5114
-215.82
84.409
-31.5288
214.686
29.0224
-249.873
-97.8912
108.223
-37.119
247.637
31.5047
-114.972
-279.372
119.807
-34.756
277.789
130.281
-164.799
1179.78
58.9499
55.5137
33.7519
30.7372
-123.018
-134.339
-123.712
-134.874
132.496
130.169
132.19
32.2948
-295.603
129.779
-32.4106
296.221
-84.7705
1166.01
22.9384
24.0857
20.0395
17.4807
-129.423
-133.535
-129.512
-133.722
514.127
10.489
1249.47
512.095
24.5133
1249.77
510.328
43.1467
1245.63
508.198
67.8809
1247.89
502.965
103.404
1247.18
502.176
159.516
1235.02
128.718
261.685
1214.84
132.023
128.197
131.477
-105.572
-304.47
135.018
98.8317
304.91
-73.0798
-39.4873
-37.6198
40.6131
36.4654
73.1083
-61.7763
-43.086
35.6971
8.49949
61.6217
-0.95598
0.946116
-8.38102
-66.9008
68.3284
35.6252
-8.49364
0.874395
1.26396
1.5269
-8.39201
-8.04939
-8.34811
601.269
-141.271
1172.36
-140.137
-147.214
-143.119
-150.253
34.9317
30.7223
27.6554
30.788
588.474
-135.487
1183.89
35.3719
36.1566
35.6933
36.8555
576.674
-135.108
1207.52
37.1328
36.2389
37.8344
37.1251
561.433
-142.471
1219.98
33.6022
39.2721
34.567
36.116
559.597
-159.241
1229.58
558.97
-111.226
1233.26
34.0985
21.2706
24.1585
21.371
-84.046
1217.18
521.763
10.1733
1268.1
520.954
25.3035
1269.56
520.197
43.7815
1266.04
519.629
68.2476
1267.1
519.644
103.02
1265.99
525.711
153.544
1256.07
557.453
230.048
1240.95
157.171
320.111
1262.91
-93.5742
-102.42
-91.6517
-102.369
156.316
157.177
156.551
-102.801
-314.313
169.645
90.2195
314.421
-47.0466
-299.709
-174.374
174.138
47.1008
299.891
-4.76239
-291.872
178.386
14.3066
291.594
-2.44669
-5.50026
-3.05737
-176.647
6.35811
-176.947
-295.989
167.714
-26.4335
299.937
9.40461
6.8283
9.12674
580.088
-193.328
1236.38
52.5001
71.4346
47.3798
52.5956
-163.364
-165.823
-164.195
-166.015
606.987
-221.067
1214.62
605.046
-145.164
1210.72
590.757
-121.292
1237.25
578.874
-129.692
1242.87
574.18
-150.806
1249.5
569.414
-107.033
1254.73
-82.275
1243.21
528.323
9.65617
1284.07
528.335
25.1829
1285.93
528.593
43.3275
1282.76
529.779
66.8398
1283.32
533.16
99.3421
1281.9
543.545
143.793
1270.26
573.318
200.056
1261.03
630.409
262.208
1272.08
674.899
226.611
1267.63
-78.855
-57.4107
-78.2746
-57.0985
695.964
145.901
1236.77
-45.2587
-38.1414
-44.9422
-38.3996
689.683
21.5914
1243.62
-12.5432
4.7842
-13.1036
4.36963
663.171
-34.2074
1237.93
21.4548
35.2176
17.3451
15.0356
617.976
-167.924
1266.7
620.722
-203.854
1253.6
613.222
-131.834
1237.27
599.67
-108.017
1261.32
588.34
-117.841
1264.28
583.206
-141.693
1268.78
577.784
-101.564
1274.48
-79.1149
1265.36
534.033
9.0057
1297.94
534.641
24.3933
1299.84
535.842
41.8913
1296.89
538.463
63.9831
1297.22
544.213
93.4314
1294.79
556.391
134.893
1277.53
584.194
173.917
1281.58
628.504
217.85
1289.58
665.096
189.691
1287.37
686.008
124.848
1266.09
680.503
26.5835
1273.72
663.891
-17.957
1265.86
605.014
-52.9471
1213.52
626.143
-154.791
1226.42
617.439
-117.967
1259.38
604.6
-95.8077
1279.9
593.864
-106.632
1280.77
577.028
-143.435
1283.83
582.037
-128.687
1289.69
-74.8271
1283.24
539.074
8.30084
1310.12
540.15
23.1289
1311.91
542.129
39.6662
1309.16
545.881
60.0243
1309.33
552.999
86.1573
1306.26
566.224
121.996
1288.66
589.996
148.166
1303.36
626.686
180.597
1301.4
657.702
158.4
1304.01
676.13
106.142
1287.19
674.435
28.0302
1295.32
662.918
-6.96645
1286.89
651.409
-40.3857
1287.73
628.255
-136.756
1318.29
619.827
-104.13
1277.39
607.995
-84.4353
1295.92
598.068
-95.9191
1296.05
592.491
-131.858
1299.32
585.466
-118.552
1304.8
-69.7147
1298.81
543.568
7.56383
1320.95
545.008
21.5196
1322.57
547.633
36.828
1320.03
552.223
55.235
1320.12
560.098
78.0632
1317.15
574.16
107.888
1301.41
594.664
126.554
1318.16
625.191
149.773
1313.42
651.372
131.979
1317.83
667.644
89.5946
1304.13
667.716
27.8584
1312.05
660.157
0.477746
1303.96
650.977
-30.2588
1305.52
629.452
-119.623
1331.89
621.766
-91.3819
1293.71
610.772
-73.9521
1309.85
601.387
-85.5573
1309.32
595.424
-119.754
1311.95
588.132
-107.825
1316.95
-63.9822
1311.83
547.633
6.79055
1330.76
549.368
19.6028
1332.2
552.496
33.4963
1329.89
557.722
49.848
1329.92
566.097
69.5021
1327.27
580.348
93.705
1314.01
598.481
107.966
1329.24
624.552
123.485
1326.52
646.314
110.006
1329.32
660.48
75.1839
1317.69
662.12
26.0881
1325.25
663.796
-20.5582
1335.49
650.459
-32.9237
1335.65
630.49
-103.264
1342.72
623.257
-79.1915
1307.5
612.899
-64.0218
1321.79
604.024
-75.4055
1320.98
597.794
-107.206
1323.22
590.208
-96.636
1327.8
-57.7741
1323.26
551.355
5.96703
1339.69
553.325
17.4701
1340.96
556.841
29.8347
1338.88
562.504
44.0666
1338.91
571.163
60.6872
1336.79
585.71
79.4671
1327.08
601.711
92.0497
1338.99
624.087
100.982
1340.27
642.381
91.6102
1337.31
654.855
62.5289
1329.1
657.354
23.5495
1336.16
668.931
-14.3126
1338.1
649.515
6.83392
1337.11
631.052
-88.0068
1352.32
624.293
-67.241
1320.73
614.759
-54.6853
1332.42
606.336
-65.4973
1331.62
599.98
-94.3317
1333.37
592.136
-85.1323
1337.5
-51.1955
1333.39
554.788
5.15992
1347.93
556.951
15.1913
1349.03
560.755
25.9113
1347.23
566.725
38.0141
1347.26
575.471
51.8479
1345.4
588.339
66.4872
1337.25
603.701
76.5623
1345.18
622.636
81.9046
1349.8
639.291
74.8453
1342.46
650.455
51.25
1338.92
653.445
20.5768
1345.54
650.188
-10.3956
1339.54
648.85
8.28345
1339.9
614.918
-88.7947
1360.05
624.934
-96.6349
1334.35
616.431
-45.9222
1340.74
608.368
-55.7851
1341.16
601.894
-81.2177
1342.7
593.829
-73.3342
1346.37
-44.3044
1342.76
557.986
4.31299
1355.63
560.282
12.8017
1356.56
564.301
21.7995
1355.01
570.468
31.7929
1354.93
579.084
43.2519
1352.19
591.178
54.2904
1347.1
605.654
62.0192
1352.63
622.182
65.2889
1357.61
637.265
59.6588
1350.07
647.181
41.2301
1348.51
650.479
17.36
1354.05
648.208
-7.56021
1348.72
648.261
8.45777
1350.37
627.599
-73.2897
1365.95
620.502
-82.348
1347.04
617.723
-47.5885
1345.25
610.184
-46.3207
1349.6
603.625
-67.9437
1351.38
595.456
-61.3769
1354.48
-37.2086
1351.38
560.972
3.46319
1362.87
563.376
10.3304
1363.62
567.559
17.5618
1362.32
573.83
25.5266
1361.85
581.662
35.5395
1356.2
593.812
41.7567
1357.04
607.521
48.2376
1360.49
622.272
50.4837
1364.49
635.963
45.9182
1357.92
645.035
32.1091
1357.12
648.47
14.085
1361.62
646.862
-5.47269
1357.22
647.92
7.73442
1359.85
622.593
-23.6322
1345.24
625.445
-53.8506
1341.19
619.25
-37.9985
1353.39
612.069
-36.8926
1357.68
605.353
-54.4996
1359.5
597.087
-49.2542
1361.97
-29.9356
1359.43
563.772
2.60719
1369.69
566.264
7.79197
1370.26
570.546
13.2373
1369.24
576.935
19.1693
1368.6
585.988
26.855
1363.62
596.716
30.6841
1368.71
609.347
35.5354
1368.48
623.103
36.7038
1370.87
635.391
33.5901
1365.56
644.089
23.395
1365.04
648.052
10.3105
1368.5
646.36
-3.33783
1365.04
648.087
6.40903
1368.68
641.591
-17.2433
1377.84
627.641
-42.0678
1382.7
620.788
-28.1793
1362.37
614
-27.595
1365.63
607.206
-40.9846
1367.11
598.787
-37.0586
1369.07
-22.5559
1366.99
566.431
1.7242
1376.18
568.969
5.21257
1376.57
573.329
8.83658
1375.85
579.743
12.7751
1375.41
589.269
17.5222
1372.58
599.197
20.5623
1376.59
611.28
23.4171
1375.34
623.964
24.0168
1376.72
635.596
21.9399
1372.7
643.541
15.466
1372.29
647.305
6.74222
1374.8
646.574
-2.12778
1372.36
648.805
4.55012
1376.92
642.737
-11.2498
1385.41
629.804
-31.1987
1389.07
622.555
-18.2917
1370.99
616.024
-18.3474
1373.25
609.25
-27.3884
1374.25
600.704
-24.757
1375.72
-15.0734
1374.24
568.958
0.85836
1382.33
571.532
2.60396
1382.59
575.929
4.42291
1382.15
582.335
6.38085
1381.91
591.221
8.64468
1380.25
601.453
10.274
1382.15
613.278
11.6003
1381.6
625.329
11.9809
1382.16
636.528
10.7376
1379.47
644.323
7.68605
1379.12
647.877
3.43863
1380.62
647.481
-1.17031
1379.22
649.935
2.38859
1384.73
644.184
-5.5537
1392.53
632.283
-21.5714
1395.67
624.44
-8.12948
1379.37
618.149
-9.17451
1380.56
611.25
-13.7411
1381.22
602.704
-12.4328
1382.09
-7.57847
1381.27
571.348
1388.22
573.924
1388.27
578.347
1388.09
584.761
1388
593.445
1387.54
603.737
1388.06
615.356
1387.57
627.35
1387.14
638.111