/*--------------------------------*- C++ -*----------------------------------*\
  =========                 |
  \\      /  F ield         | OpenFOAM: The Open Source CFD Toolbox
   \\    /   O peration     | Website:  https://openfoam.org
    \\  /    A nd           | Version:  10
     \\/     M anipulation  |
\*---------------------------------------------------------------------------*/
FoamFile
{
    format      ascii;
    class       volVectorField;
    location    "2000";
    object      U;
}
// * * * * * * * * * * * * * * * * * * * * * * * * * * * * * * * * * * * * * //

dimensions      [0 1 -1 0 0 0 0];

internalField   nonuniform List<vector> 
55398
(
(15.8469 0.228035 13.2468)
(16.2745 0.317789 13.2106)
(15.952 0.049129 13.1785)
(15.7167 0.455435 13.0236)
(15.2395 0.6217 12.8424)
(13.5389 0.753246 12.0077)
(16.4425 0.146583 13.776)
(16.5877 0.25933 13.7608)
(16.4051 0.34448 13.7458)
(16.2293 0.621285 13.7046)
(15.9104 0.917454 13.6534)
(15.2934 1.48155 13.5737)
(14.1216 2.64327 13.3978)
(10.9422 4.65438 12.1926)
(-3.51748 0.343381 9.2019)
(-1.03989 -0.274064 10.9012)
(3.27457 -0.604557 10.6737)
(5.62505 -0.553442 10.3228)
(7.3611 -0.255417 10.3986)
(9.45098 -0.747114 11.1668)
(16.9417 0.151867 14.1948)
(16.9468 0.275841 14.1876)
(16.8445 0.506547 14.1645)
(16.6779 0.798435 14.1316)
(16.4123 1.24564 14.0863)
(16.0032 2.07649 14.0016)
(15.4295 3.84407 13.8529)
(15.1042 6.35926 13.4803)
(-0.313231 0.298008 6.05747)
(10.3333 -1.42922 9.95379)
(13.6895 -2.19062 11.6341)
(15.5522 -1.85908 12.9105)
(16.2922 -1.36166 13.2344)
(17.2107 -1.04105 13.4037)
(17.4308 -1.09306 13.4588)
(17.2421 0.133467 14.453)
(17.2445 0.305034 14.4441)
(17.1756 0.538096 14.4258)
(17.0626 0.862306 14.3988)
(16.9249 1.34442 14.3619)
(16.721 2.18044 14.2872)
(16.8111 3.72857 14.1646)
(17.0562 5.71724 13.9379)
(20.9297 8.40684 13.5136)
(21.649 2.65427 12.2114)
(17.8216 -2.03569 12.3822)
(19.2311 -1.81939 13.4196)
(19.7815 -2.05092 13.5713)
(19.3342 -2.07719 13.8527)
(18.8798 -1.77194 14.0591)
(18.7106 -1.24895 14.0943)
(18.7399 -1.16842 14.0631)
(18.7234 -1.07897 14.0841)
(17.4921 0.127737 14.6672)
(17.4983 0.319045 14.6587)
(17.4625 0.563993 14.6432)
(17.4088 0.899319 14.6212)
(17.3705 1.38688 14.5881)
(17.383 2.14374 14.5321)
(17.6934 3.4436 14.4282)
(19.2589 4.83684 14.2765)
(21.5402 5.28455 13.9977)
(23.4383 2.97509 13.793)
(24.6609 1.41588 13.6704)
(22.8609 -1.98043 13.7223)
(21.4446 -1.84 13.9886)
(20.7203 -1.75147 14.0258)
(20.4125 -1.91317 14.0572)
(19.8806 -1.87712 14.2118)
(19.3884 -1.61369 14.3346)
(19.1614 -1.24911 14.3725)
(19.1366 -1.16532 14.3616)
(19.0262 -1.08016 14.3855)
(17.7081 0.119781 14.851)
(17.72 0.323418 14.8435)
(17.7143 0.571752 14.8305)
(17.7111 0.903254 14.8114)
(17.76 1.36622 14.7846)
(17.8993 2.0437 14.7333)
(18.3874 2.99659 14.6693)
(19.7698 4.19152 14.5322)
(21.988 3.49458 14.4054)
(23.2945 2.36197 14.3352)
(23.8168 0.428866 14.2901)
(22.812 -1.02981 14.3153)
(21.6028 -1.50511 14.3746)
(21.149 -1.55582 14.4013)
(20.741 -1.67932 14.4356)
(20.2088 -1.64142 14.5256)
(19.7859 -1.46681 14.5891)
(19.5172 -1.1881 14.6192)
(19.4588 -1.12484 14.6176)
(19.2576 -1.04584 14.6413)
(17.8981 0.113366 15.0119)
(17.9161 0.320416 15.0054)
(17.936 0.56517 14.9943)
(17.9787 0.882635 14.9791)
(18.0877 1.30948 14.9565)
(18.3299 1.89257 14.9143)
(18.8438 2.62629 14.8643)
(20.0754 3.38292 14.7827)
(21.7609 2.9228 14.6852)
(22.8961 1.87656 14.6288)
(23.2331 0.370909 14.6124)
(22.6338 -0.90139 14.6246)
(21.846 -1.2991 14.6546)
(21.3238 -1.41291 14.6757)
(20.8987 -1.49055 14.699)
(20.3935 -1.46055 14.7548)
(20.0193 -1.3398 14.7913)
(19.711 -1.12879 14.8197)
(19.6215 -1.07324 14.8265)
(19.3683 -0.999285 14.8524)
(18.0676 0.106377 15.1551)
(18.0916 0.310105 15.1496)
(18.1334 0.545206 15.1402)
(18.213 0.841877 15.128)
(18.3688 1.22568 15.1095)
(18.6682 1.71095 15.0791)
(19.2027 2.27164 15.0372)
(20.2496 2.79551 14.9774)
(21.6042 2.45528 14.9155)
(22.5476 1.62434 14.8713)
(22.8892 0.355965 14.8504)
(22.5177 -0.57161 14.8496)
(21.896 -0.994304 14.8673)
(21.3869 -1.16371 14.8993)
(20.9839 -1.2637 14.9211)
(20.5226 -1.26605 14.9587)
(20.1874 -1.19111 14.9823)
(19.8685 -1.03722 15.008)
(19.7575 -0.993823 15.0174)
(19.4675 -0.932065 15.0398)
(18.2207 0.0990013 15.2846)
(18.2505 0.293927 15.2804)
(18.3106 0.514753 15.2726)
(18.4184 0.786772 15.2618)
(18.6081 1.12343 15.2469)
(18.9399 1.52877 15.222)
(19.4721 1.95528 15.1906)
(20.3662 2.31791 15.1451)
(21.4616 2.05267 15.102)
(22.2687 1.36074 15.0726)
(22.5894 0.39471 15.0615)
(22.3445 -0.426147 15.0536)
(21.8648 -0.849343 15.0641)
(21.4159 -1.03069 15.0902)
(21.043 -1.12367 15.1067)
(20.6284 -1.13016 15.1313)
(20.3156 -1.07804 15.147)
(19.9938 -0.957412 15.1676)
(19.8654 -0.918157 15.1773)
(19.5494 -0.863003 15.1959)
(18.3601 0.0908546 15.4022)
(18.395 0.272861 15.3992)
(18.4702 0.476115 15.3927)
(18.6 0.720615 15.3833)
(18.8131 1.01227 15.3707)
(19.1574 1.34918 15.3511)
(19.6728 1.67332 15.3265)
(20.4492 1.91773 15.292)
(21.3576 1.70754 15.2602)
(22.0455 1.14948 15.2392)
(22.3454 0.377151 15.2317)
(22.1986 -0.294389 15.2218)
(21.8366 -0.663703 15.2275)
(21.4384 -0.847283 15.2489)
(21.0934 -0.940231 15.2637)
(20.7085 -0.962986 15.281)
(20.4131 -0.935054 15.2921)
(20.0905 -0.850961 15.3095)
(19.9509 -0.821772 15.3187)
(19.6151 -0.779639 15.3333)
(18.488 0.0822364 15.5096)
(18.5272 0.24777 15.5071)
(18.6141 0.430761 15.5018)
(18.7604 0.64597 15.4939)
(18.9893 0.895136 15.4837)
(19.3382 1.17235 15.4674)
(19.8313 1.42249 15.4485)
(20.5133 1.58369 15.4248)
(21.2783 1.41234 15.4011)
(21.8734 0.958708 15.3843)
(22.1499 0.34795 15.3784)
(22.0703 -0.199491 15.3705)
(21.7884 -0.535889 15.3725)
(21.4433 -0.718181 15.3895)
(21.1275 -0.812772 15.4022)
(20.7744 -0.841496 15.4152)
(20.4959 -0.826991 15.4223)
(20.1775 -0.762209 15.4361)
(20.0303 -0.737402 15.4433)
(19.6798 -0.700189 15.4556)
(18.6063 0.0727636 15.6087)
(18.6491 0.219683 15.6067)
(18.745 0.380554 15.6024)
(18.9033 0.56604 15.596)
(19.1425 0.775206 15.5877)
(19.4887 1.00033 15.5751)
(19.9584 1.19245 15.5593)
(20.5658 1.29877 15.5427)
(21.221 1.15927 15.5265)
(21.7443 0.793578 15.512)
(21.9971 0.311241 15.5076)
(21.9631 -0.135954 15.5013)
(21.7489 -0.422666 15.5015)
(21.4527 -0.588967 15.5136)
(21.1617 -0.67432 15.5243)
(20.8341 -0.703533 15.5348)
(20.5667 -0.698995 15.54)
(20.2512 -0.65368 15.5513)
(20.0984 -0.635543 15.5573)
(19.7374 -0.607849 15.5672)
(18.7163 0.0626321 15.7008)
(18.762 0.189207 15.6992)
(18.8647 0.326644 15.6958)
(19.0316 0.482455 15.6907)
(19.2767 0.654094 15.6842)
(19.618 0.833135 15.6743)
(20.065 0.978415 15.6623)
(20.6121 1.04924 15.6502)
(21.1873 0.93447 15.6386)
(21.651 0.645174 15.628)
(21.8836 0.268462 15.6247)
(21.8804 -0.0923517 15.6199)
(21.7171 -0.329249 15.6191)
(21.4601 -0.477899 15.6262)
(21.1904 -0.556141 15.6361)
(20.8835 -0.587746 15.6443)
(20.6276 -0.590162 15.6481)
(20.3174 -0.558054 15.6566)
(20.162 -0.544049 15.6611)
(19.7946 -0.521142 15.669)
(18.8189 0.0519379 15.7868)
(18.8668 0.156889 15.7856)
(18.9746 0.270069 15.7829)
(19.1475 0.39651 15.779)
(19.3949 0.533933 15.7736)
(19.7306 0.672825 15.7663)
(20.1575 0.78049 15.7575)
(20.6577 0.828576 15.7489)
(21.1714 0.737285 15.7403)
(21.5943 0.509764 15.7328)
(21.807 0.220731 15.7303)
(21.8235 -0.0615362 15.7276)
(21.6956 -0.252527 15.7267)
(21.4732 -0.374825 15.7309)
(21.2224 -0.442332 15.7377)
(20.9344 -0.470837 15.7438)
(20.6876 -0.475589 15.7469)
(20.3814 -0.453063 15.7536)
(20.2241 -0.442735 15.7571)
(19.8515 -0.425776 15.7631)
(18.9151 0.0408011 15.8674)
(18.9647 0.12324 15.8665)
(19.0762 0.211631 15.8646)
(19.253 0.309264 15.8618)
(19.5018 0.414325 15.8574)
(19.8309 0.516789 15.8524)
(20.2435 0.594232 15.8464)
(20.7007 0.62605 15.8404)
(21.1997 0.552017 15.8342)
(21.5366 0.391426 15.8296)
(21.8102 0.178881 15.8274)
(21.7991 -0.0418375 15.8264)
(21.694 -0.187645 15.8252)
(21.4941 -0.283199 15.8273)
(21.2594 -0.337007 15.8322)
(20.9861 -0.361567 15.8366)
(20.7463 -0.368059 15.8387)
(20.4442 -0.353671 15.8435)
(20.286 -0.346646 15.846)
(19.9111 -0.334053 15.8503)
(19.0056 0.0293476 15.9434)
(19.0565 0.0886334 15.9428)
(19.1705 0.151916 15.9414)
(19.3499 0.221311 15.9395)
(19.5996 0.294993 15.9365)
(19.9236 0.366069 15.9333)
(20.3219 0.418757 15.9292)
(20.7582 0.435541 15.9254)
(21.2083 0.388345 15.9214)
(21.5522 0.269797 15.9183)
(21.7633 0.117691 15.917)
(21.7983 -0.0199767 15.9164)
(21.713 -0.126184 15.9155)
(21.5299 -0.196441 15.9169)
(21.3074 -0.236596 15.9202)
(21.045 -0.255444 15.923)
(20.8108 -0.261171 15.9244)
(20.5115 -0.251757 15.9277)
(20.3525 -0.247034 15.9293)
(19.9753 -0.238371 15.9325)
(19.0912 0.0176642 16.0151)
(19.1428 0.0533687 16.0147)
(19.2584 0.0913805 16.014)
(19.4392 0.132911 16.0129)
(19.6891 0.176273 16.0113)
(20.0099 0.21855 16.0093)
(20.3987 0.248346 16.0072)
(20.8198 0.260027 16.005)
(21.2446 0.228706 16.0029)
(21.5831 0.162836 16.0013)
(21.7854 0.0700009 16.0004)
(21.8188 -0.0103848 16)
(21.7468 -0.0732048 15.9992)
(21.5756 -0.115386 16.0001)
(21.3616 -0.140014 16.0027)
(21.1069 -0.151755 16.0045)
(20.8761 -0.155919 16.0054)
(20.5793 -0.150909 16.0077)
(20.4201 -0.148514 16.0086)
(20.0423 -0.143619 16.0107)
(19.1721 0.00588118 16.0828)
(19.2239 0.0177882 16.0825)
(19.3401 0.030454 16.082)
(19.5215 0.0442593 16.0814)
(19.7715 0.0585462 16.0807)
(20.09 0.0722559 16.0799)
(20.4762 0.0812867 16.079)
(20.8825 0.0859899 16.0781)
(21.3227 0.0735889 16.0775)
(21.6121 0.0529759 16.0769)
(21.859 0.0291389 16.0767)
(21.8585 -0.00898929 16.0761)
(21.7999 -0.0264811 16.0757)
(21.6347 -0.0390817 16.0759)
(21.4241 -0.0467939 16.0757)
(21.1724 -0.0508983 16.0753)
(20.9435 -0.0524188 16.0752)
(20.647 -0.0507877 16.0749)
(20.4872 -0.0499871 16.0747)
(20.1078 -0.0481721 16.0747)
(15.849 0.219435 13.2534)
(16.2899 0.309247 13.2454)
(15.991 0.107459 13.2224)
(15.827 0.488127 13.159)
(15.0978 0.577739 12.7299)
(14.1139 0.839437 12.5162)
(16.4554 0.144689 13.7867)
(16.6065 0.257086 13.7848)
(16.427 0.347931 13.7664)
(16.2524 0.626429 13.7221)
(15.9258 0.919987 13.6605)
(15.3132 1.49526 13.5884)
(14.14 2.676 13.3523)
(10.0588 4.51108 11.677)
(-3.04266 0.458923 9.51808)
(-0.586051 -0.343716 11.0903)
(3.82723 -0.780303 11.2748)
(6.24655 -0.610569 10.661)
(7.47235 -0.343814 10.439)
(10.0681 -0.642054 11.2381)
(16.9469 0.151237 14.2007)
(16.9514 0.27533 14.1954)
(16.8551 0.506466 14.1746)
(16.6954 0.801045 14.1421)
(16.4301 1.25216 14.0999)
(16.0452 2.07709 14.0028)
(15.5858 3.83498 13.844)
(15.028 6.43675 13.4678)
(0.14096 0.234641 6.21105)
(10.4757 -1.28361 9.89957)
(14.0804 -2.13177 11.614)
(15.7746 -1.94333 12.8983)
(17.0915 -1.34724 13.4754)
(17.2216 -1.06156 13.4066)
(17.723 -1.03581 13.5414)
(17.2445 0.133147 14.456)
(17.2492 0.305614 14.4508)
(17.1836 0.539247 14.4333)
(17.0762 0.864383 14.4054)
(16.9399 1.34634 14.3709)
(16.7559 2.17986 14.2847)
(16.9158 3.68671 14.1658)
(17.103 5.67243 13.9644)
(20.6415 8.79298 13.2539)
(21.999 2.75733 12.5726)
(17.6166 -2.0186 12.2862)
(19.7795 -1.90154 13.6068)
(19.7772 -2.02484 13.6018)
(19.3882 -2.03668 13.8309)
(18.9234 -1.80323 14.0384)
(18.7337 -1.26653 14.1255)
(18.7514 -1.16913 14.1103)
(18.7549 -1.04243 14.1099)
(17.4939 0.127735 14.6696)
(17.5021 0.31946 14.6643)
(17.469 0.564914 14.6491)
(17.4201 0.900695 14.6258)
(17.3821 1.38814 14.595)
(17.4119 2.13788 14.5279)
(17.7492 3.41087 14.4381)
(19.2833 4.74819 14.3128)
(21.4551 5.22735 14.0975)
(23.3768 2.98598 13.8359)
(24.6277 0.732964 13.7085)
(22.9555 -2.03841 13.7259)
(21.3699 -1.88575 14.0312)
(20.737 -1.70696 14.0555)
(20.4228 -1.85601 14.093)
(19.9242 -1.8584 14.2086)
(19.4241 -1.63089 14.3257)
(19.1684 -1.25572 14.3888)
(19.1413 -1.1558 14.3855)
(19.0423 -1.05888 14.4033)
(17.7096 0.119729 14.853)
(17.723 0.32375 14.8481)
(17.7194 0.572193 14.8351)
(17.7202 0.903565 14.8148)
(17.7692 1.36569 14.7897)
(17.9212 2.03731 14.731)
(18.4221 2.95982 14.6792)
(19.7807 4.13939 14.5554)
(21.96 3.44609 14.4486)
(23.2655 2.35529 14.3516)
(23.6774 0.205925 14.3585)
(22.8491 -1.01333 14.3435)
(21.5863 -1.53374 14.3821)
(21.1169 -1.55364 14.4081)
(20.7352 -1.64947 14.4521)
(20.2368 -1.62828 14.5261)
(19.8022 -1.47384 14.5884)
(19.5145 -1.19057 14.6319)
(19.4561 -1.11823 14.6334)
(19.2669 -1.03158 14.6543)
(17.8993 0.113376 15.0135)
(17.9186 0.320657 15.0093)
(17.9401 0.565322 14.998)
(17.9857 0.882071 14.9812)
(18.0945 1.30855 14.9594)
(18.3432 1.88401 14.9133)
(18.8668 2.59807 14.8705)
(20.0779 3.3424 14.8026)
(21.7408 2.90085 14.7197)
(22.8727 1.86448 14.654)
(23.2234 0.348962 14.6144)
(22.633 -0.899489 14.6233)
(21.8461 -1.30424 14.655)
(21.3097 -1.40915 14.683)
(20.899 -1.47626 14.7082)
(20.41 -1.45269 14.7574)
(20.0296 -1.34166 14.7933)
(19.7082 -1.1288 14.8279)
(19.62 -1.0674 14.8355)
(19.3748 -0.988083 14.8624)
(18.0685 0.106409 15.1564)
(18.0937 0.310307 15.1527)
(18.1368 0.545256 15.1431)
(18.2184 0.841422 15.1294)
(18.3734 1.22381 15.1102)
(18.6765 1.71074 15.0776)
(19.2098 2.25333 15.0428)
(20.2467 2.76796 14.9924)
(21.5903 2.43514 14.9387)
(22.5322 1.61688 14.8891)
(22.873 0.355117 14.866)
(22.5145 -0.570617 14.8589)
(21.8963 -0.999224 14.8701)
(21.3796 -1.16826 14.9018)
(20.9806 -1.26022 14.9239)
(20.5317 -1.26093 14.9614)
(20.1926 -1.19054 14.9848)
(19.8658 -1.03655 15.0117)
(19.7561 -0.989439 15.0217)
(19.4728 -0.923533 15.0466)
(18.2212 0.0988673 15.2851)
(18.2517 0.29421 15.2818)
(18.3128 0.514919 15.2737)
(18.4223 0.786256 15.2623)
(18.6118 1.12202 15.2471)
(18.9421 1.52594 15.2226)
(19.4732 1.94941 15.1924)
(20.3639 2.29862 15.1557)
(21.4541 2.03523 15.1196)
(22.2583 1.35326 15.0855)
(22.578 0.393094 15.0721)
(22.339 -0.422455 15.0641)
(21.8643 -0.847891 15.0697)
(21.413 -1.03096 15.0927)
(21.0416 -1.11907 15.1099)
(20.6323 -1.12461 15.1343)
(20.3181 -1.0759 15.1493)
(19.9917 -0.956983 15.1699)
(19.8653 -0.915795 15.1801)
(19.5534 -0.856699 15.2014)
(18.3604 0.0909531 15.4024)
(18.3956 0.272914 15.3994)
(18.4713 0.475996 15.3928)
(18.6027 0.719687 15.3832)
(18.8163 1.01065 15.3709)
(19.1591 1.34697 15.3517)
(19.6737 1.67032 15.3281)
(20.4475 1.90502 15.3006)
(21.3522 1.69371 15.2733)
(22.0376 1.14425 15.2484)
(22.3377 0.371635 15.2393)
(22.1929 -0.293733 15.2304)
(21.8358 -0.662136 15.2327)
(21.4368 -0.847871 15.2502)
(21.092 -0.939729 15.2646)
(20.7113 -0.960059 15.2833)
(20.4148 -0.933499 15.294)
(20.0896 -0.850319 15.3107)
(19.9513 -0.819857 15.3203)
(19.6184 -0.774547 15.3379)
(18.4883 0.0822717 15.5097)
(18.5277 0.247758 15.5073)
(18.615 0.430538 15.5019)
(18.7625 0.645032 15.4939)
(18.9918 0.893565 15.4839)
(19.3385 1.16877 15.4686)
(19.8322 1.41744 15.4504)
(20.513 1.57436 15.43)
(21.2744 1.40414 15.4091)
(21.8686 0.95523 15.3911)
(22.1452 0.343495 15.3845)
(22.0649 -0.199047 15.3791)
(21.7869 -0.534001 15.3786)
(21.4427 -0.717437 15.391)
(21.1264 -0.811771 15.4027)
(20.776 -0.838595 15.4171)
(20.4967 -0.825022 15.424)
(20.1768 -0.761827 15.4368)
(20.0307 -0.735774 15.4445)
(19.6827 -0.695705 15.4594)
(18.6066 0.0727793 15.6088)
(18.6495 0.219642 15.6068)
(18.7457 0.380307 15.6025)
(18.905 0.565171 15.5961)
(19.1444 0.773707 15.5881)
(19.49 0.997963 15.5761)
(19.9591 1.18673 15.5624)
(20.5652 1.29121 15.5468)
(21.2197 1.15391 15.5308)
(21.741 0.791323 15.517)
(21.9948 0.307498 15.512)
(21.958 -0.136497 15.5112)
(21.7475 -0.420112 15.5084)
(21.4522 -0.588926 15.5142)
(21.1607 -0.674595 15.524)
(20.8351 -0.702478 15.5356)
(20.5674 -0.697543 15.5412)
(20.2508 -0.653355 15.5516)
(20.0988 -0.634188 15.5581)
(19.7397 -0.604142 15.5702)
(18.7164 0.0626344 15.7009)
(18.7623 0.189156 15.6993)
(18.8653 0.32641 15.6959)
(19.0329 0.481654 15.6909)
(19.2781 0.652835 15.6846)
(19.6189 0.830879 15.6753)
(20.0654 0.973962 15.6649)
(20.6117 1.04392 15.6535)
(21.1865 0.930418 15.6417)
(21.6488 0.643684 15.6314)
(21.8826 0.265973 15.6279)
(21.877 -0.0929502 15.6271)
(21.7157 -0.327507 15.6244)
(21.4601 -0.478083 15.6261)
(21.1902 -0.556102 15.6346)
(20.8838 -0.586967 15.6444)
(20.6281 -0.588969 15.6489)
(20.3171 -0.557835 15.6569)
(20.1623 -0.542928 15.6618)
(19.7965 -0.517926 15.6714)
(18.819 0.0519434 15.7869)
(18.8671 0.156847 15.7857)
(18.9751 0.269864 15.783)
(19.1485 0.39584 15.7792)
(19.3958 0.532519 15.7744)
(19.7314 0.670524 15.7675)
(20.1578 0.77691 15.7598)
(20.6575 0.824577 15.7513)
(21.1708 0.734158 15.7425)
(21.5929 0.508599 15.735)
(21.8071 0.218361 15.7326)
(21.822 -0.0621649 15.7319)
(21.6951 -0.251238 15.7293)
(21.4733 -0.37476 15.731)
(21.222 -0.442802 15.7368)
(20.9345 -0.470401 15.7439)
(20.6879 -0.474662 15.7475)
(20.3812 -0.452927 15.7538)
(20.2244 -0.441858 15.7576)
(19.853 -0.423184 15.7649)
(18.9152 0.0408098 15.8675)
(18.9649 0.123203 15.8666)
(19.0765 0.211461 15.8647)
(19.2538 0.308725 15.862)
(19.5026 0.413009 15.8581)
(19.8313 0.514801 15.8537)
(20.2436 0.591502 15.8482)
(20.7005 0.623197 15.8422)
(21.1995 0.549979 15.8357)
(21.5361 0.390377 15.831)
(21.8104 0.17756 15.8291)
(21.7987 -0.0421802 15.8284)
(21.694 -0.187289 15.8261)
(21.4942 -0.283164 15.8275)
(21.2592 -0.33704 15.8323)
(20.9863 -0.361108 15.8369)
(20.7466 -0.367288 15.8392)
(20.444 -0.353514 15.8436)
(20.2862 -0.345974 15.8464)
(19.9123 -0.332026 15.8517)
(19.0057 0.0293534 15.9434)
(19.0566 0.0886116 15.9428)
(19.1707 0.151799 15.9415)
(19.3503 0.220922 15.9397)
(19.6 0.294029 15.937)
(19.9241 0.364694 15.9342)
(20.322 0.416941 15.9305)
(20.7583 0.433709 15.9266)
(21.2079 0.387042 15.9224)
(21.5526 0.269034 15.9191)
(21.7632 0.116482 15.9179)
(21.7982 -0.0201452 15.9176)
(21.7129 -0.12588 15.9162)
(21.5299 -0.19628 15.9171)
(21.3073 -0.236457 15.9202)
(21.0452 -0.255014 15.9233)
(20.811 -0.260597 15.9247)
(20.5115 -0.251695 15.9277)
(20.3527 -0.246533 15.9296)
(19.9763 -0.236875 15.9334)
(19.0912 0.0176706 16.0151)
(19.1428 0.0533638 16.0148)
(19.2585 0.0913158 16.014)
(19.4395 0.132679 16.013)
(19.6894 0.175879 16.0116)
(20.0101 0.217703 16.0099)
(20.3987 0.247235 16.0079)
(20.8198 0.258954 16.0057)
(21.2445 0.227916 16.0034)
(21.5835 0.162326 16.0016)
(21.7859 0.0695005 16.0009)
(21.8188 -0.0105697 16.0007)
(21.7466 -0.0730581 15.9996)
(21.5756 -0.115291 16.0001)
(21.3616 -0.139889 16.0027)
(21.107 -0.151578 16.0048)
(20.8764 -0.155598 16.0057)
(20.5792 -0.150926 16.0077)
(20.4202 -0.148235 16.0088)
(20.0429 -0.142742 16.0113)
(19.1721 0.00588366 16.0828)
(19.2239 0.0177864 16.0825)
(19.3401 0.0304331 16.082)
(19.5216 0.0441872 16.0815)
(19.7717 0.0584396 16.0808)
(20.09 0.0720493 16.08)
(20.4763 0.0810171 16.0792)
(20.8825 0.085734 16.0783)
(21.3228 0.0733894 16.0776)
(21.6123 0.0528416 16.077)
(21.8591 0.0290142 16.0768)
(21.8584 -0.00882181 16.0762)
(21.7998 -0.0265931 16.0758)
(21.6348 -0.03918 16.0757)
(21.424 -0.0467997 16.0757)
(21.1722 -0.0508093 16.0754)
(20.9437 -0.0522979 16.0752)
(20.647 -0.0507713 16.075)
(20.4872 -0.0498887 16.0747)
(20.1081 -0.047916 16.0746)
(15.846 0.209445 13.2529)
(16.2836 0.311456 13.2507)
(15.9908 0.105629 13.2324)
(15.8692 0.489646 13.2018)
(15.2923 0.642829 12.9211)
(14.2554 0.886219 12.6168)
(16.4568 0.144133 13.7889)
(16.6051 0.259112 13.7836)
(16.4298 0.348424 13.7701)
(16.2584 0.628071 13.733)
(15.9345 0.926924 13.6745)
(15.3208 1.50029 13.61)
(14.2433 2.73327 13.4255)
(11.0222 4.94154 12.4854)
(-2.67375 0.402963 9.42998)
(-0.438478 -0.291611 11.0928)
(4.14235 -0.718042 11.5825)
(7.728 -0.868684 11.46)
(8.36026 -0.368005 10.8955)
(10.686 -0.681205 11.3316)
(16.9468 0.151317 14.2013)
(16.9507 0.276112 14.1954)
(16.8556 0.507482 14.1779)
(16.6968 0.801353 14.1469)
(16.4316 1.25331 14.1061)
(16.0531 2.08098 14.0199)
(15.6024 3.82607 13.8988)
(15.3155 6.27764 13.5665)
(1.92015 -0.368427 8.07345)
(10.448 -1.22123 9.90914)
(13.9766 -2.02101 11.4569)
(15.8169 -1.97408 12.8674)
(17.2965 -1.40429 13.5684)
(17.3359 -1.1226 13.5315)
(17.7827 -1.00813 13.6173)
(17.2447 0.132948 14.457)
(17.2488 0.305848 14.4515)
(17.1845 0.539948 14.4366)
(17.0779 0.865172 14.411)
(16.941 1.34752 14.3788)
(16.7627 2.17893 14.3004)
(16.9149 3.67988 14.1997)
(17.1477 5.64582 14.0128)
(20.7665 8.44951 13.3337)
(22.2859 3.02776 12.6326)
(17.8748 -1.97372 12.6823)
(19.8017 -1.92859 13.7275)
(19.7389 -2.00099 13.6483)
(19.3933 -2.00509 13.8078)
(18.9718 -1.81058 14.0137)
(18.7655 -1.29902 14.1643)
(18.7585 -1.18142 14.1611)
(18.7546 -1.02138 14.1513)
(17.4941 0.127693 14.6704)
(17.5018 0.319509 14.6654)
(17.4697 0.565136 14.6521)
(17.4216 0.901016 14.6308)
(17.3832 1.38838 14.6019)
(17.4173 2.13606 14.5403)
(17.7481 3.41105 14.4591)
(19.2849 4.7374 14.3203)
(21.4499 5.24867 14.1142)
(23.3799 2.98814 13.8557)
(24.6114 0.689152 13.6927)
(22.9668 -1.93477 13.7347)
(21.37 -1.8987 14.0631)
(20.7358 -1.71514 14.1379)
(20.4057 -1.81349 14.123)
(19.9372 -1.84118 14.2052)
(19.4662 -1.64601 14.3199)
(19.186 -1.27119 14.4102)
(19.1432 -1.15469 14.4169)
(19.0403 -1.04333 14.4254)
(17.7097 0.11966 14.8537)
(17.7229 0.323748 14.8492)
(17.7201 0.572309 14.8379)
(17.7216 0.903712 14.8192)
(17.7701 1.36534 14.7955)
(17.9248 2.03561 14.7408)
(18.421 2.96062 14.6915)
(19.7804 4.13365 14.5633)
(21.9619 3.45643 14.4384)
(23.2663 2.35114 14.3444)
(23.6425 0.203756 14.322)
(22.894 -0.979422 14.342)
(21.6142 -1.53814 14.4025)
(21.1021 -1.56386 14.4471)
(20.7219 -1.63953 14.4634)
(20.2503 -1.62093 14.5222)
(19.8237 -1.47783 14.5902)
(19.5186 -1.19653 14.6492)
(19.4511 -1.11688 14.6544)
(19.265 -1.02154 14.6691)
(17.8994 0.113328 15.0142)
(17.9186 0.32063 15.0103)
(17.9407 0.565294 15.0005)
(17.9867 0.882093 14.9848)
(18.0955 1.30784 14.9639)
(18.345 1.88142 14.9209)
(18.8654 2.59874 14.8758)
(20.0781 3.34285 14.8023)
(21.7412 2.90242 14.707)
(22.8698 1.86921 14.6441)
(23.2197 0.338994 14.6083)
(22.6351 -0.903877 14.6124)
(21.8518 -1.30474 14.6515)
(21.3036 -1.40367 14.6963)
(20.8936 -1.46783 14.7172)
(20.4196 -1.44848 14.758)
(20.0437 -1.34233 14.7982)
(19.7137 -1.13 14.8415)
(19.6195 -1.06387 14.852)
(19.3748 -0.980709 14.8728)
(18.0686 0.10635 15.157)
(18.0937 0.31016 15.1537)
(18.1374 0.545046 15.1452)
(18.2191 0.841376 15.1321)
(18.3739 1.22272 15.1138)
(18.676 1.7096 15.0796)
(19.2096 2.25379 15.044)
(20.2457 2.76816 14.9902)
(21.5896 2.43712 14.9296)
(22.5326 1.61889 14.8807)
(22.8727 0.360109 14.8613)
(22.5149 -0.567763 14.8599)
(21.8974 -1.00483 14.8636)
(21.3773 -1.17005 14.8993)
(20.9774 -1.25743 14.9267)
(20.5354 -1.25941 14.9615)
(20.1995 -1.18969 14.9897)
(19.8698 -1.03484 15.0222)
(19.7579 -0.984959 15.0341)
(19.4741 -0.918087 15.054)
(18.2213 0.0987436 15.2856)
(18.2517 0.294014 15.2826)
(18.3133 0.514654 15.2753)
(18.4229 0.786037 15.2643)
(18.612 1.12185 15.2493)
(18.9419 1.52676 15.2238)
(19.473 1.94776 15.1929)
(20.3632 2.2993 15.1537)
(21.4546 2.03619 15.1128)
(22.2584 1.35569 15.0796)
(22.578 0.392702 15.066)
(22.339 -0.421831 15.0627)
(21.8648 -0.849563 15.066)
(21.4126 -1.03065 15.0915)
(21.0404 -1.11646 15.112)
(20.6339 -1.12289 15.1352)
(20.3218 -1.07312 15.1538)
(19.9938 -0.953534 15.178)
(19.8668 -0.911372 15.1891)
(19.5547 -0.85291 15.207)
(18.3605 0.0909357 15.4026)
(18.3956 0.272798 15.3999)
(18.4716 0.475753 15.3938)
(18.6029 0.719479 15.3846)
(18.8163 1.01067 15.3723)
(19.1591 1.34718 15.3526)
(19.6736 1.66998 15.3287)
(20.4471 1.90602 15.2994)
(21.3528 1.69426 15.2692)
(22.0374 1.14611 15.2443)
(22.3377 0.37063 15.2348)
(22.1918 -0.292328 15.2319)
(21.8352 -0.663641 15.2316)
(21.4364 -0.848193 15.2501)
(21.0905 -0.939299 15.2661)
(20.7122 -0.95971 15.2839)
(20.4175 -0.93164 15.2976)
(20.0916 -0.847127 15.317)
(19.9535 -0.815777 15.3271)
(19.6199 -0.77125 15.3421)
(18.4884 0.0822562 15.5099)
(18.5277 0.24776 15.5076)
(18.6152 0.430443 15.5026)
(18.7627 0.64496 15.4951)
(18.9919 0.893705 15.485)
(19.339 1.1686 15.47)
(19.8318 1.41697 15.4509)
(20.5128 1.57487 15.4287)
(21.275 1.40407 15.407)
(21.8682 0.956537 15.3884)
(22.1451 0.343115 15.3816)
(22.0636 -0.198453 15.3809)
(21.7867 -0.534597 15.3775)
(21.4429 -0.717078 15.3908)
(21.1254 -0.810551 15.4038)
(20.7764 -0.837626 15.4176)
(20.4982 -0.82212 15.4273)
(20.178 -0.758224 15.442)
(20.0326 -0.731829 15.4501)
(19.6841 -0.693317 15.4625)
(18.6066 0.0727777 15.6089)
(18.6495 0.219666 15.6071)
(18.7459 0.380235 15.603)
(18.9051 0.565123 15.597)
(19.1445 0.77381 15.5889)
(19.4902 0.997088 15.5769)
(19.959 1.18695 15.5626)
(20.5652 1.29188 15.5463)
(21.2199 1.15375 15.5296)
(21.7406 0.79218 15.5155)
(21.9949 0.306931 15.5104)
(21.9583 -0.136199 15.5102)
(21.7474 -0.421104 15.5064)
(21.4525 -0.587505 15.5149)
(21.1594 -0.673024 15.5272)
(20.835 -0.701998 15.5369)
(20.5685 -0.695535 15.5438)
(20.2518 -0.650508 15.5555)
(20.1007 -0.6309 15.5623)
(19.7409 -0.602112 15.5726)
(18.7165 0.0626311 15.701)
(18.7623 0.18917 15.6995)
(18.8654 0.326346 15.6963)
(19.033 0.481606 15.6915)
(19.278 0.652975 15.6851)
(19.619 0.830316 15.6759)
(20.0654 0.974064 15.6649)
(20.6118 1.04432 15.653)
(21.1866 0.930374 15.6409)
(21.6485 0.644244 15.6305)
(21.8828 0.265606 15.6269)
(21.8772 -0.0929362 15.6265)
(21.7155 -0.32821 15.6232)
(21.4597 -0.475875 15.6285)
(21.1893 -0.553372 15.6381)
(20.8837 -0.585485 15.6458)
(20.6288 -0.586853 15.6509)
(20.3177 -0.555193 15.66)
(20.1638 -0.540007 15.6653)
(19.7975 -0.516401 15.6732)
(18.819 0.0519378 15.7869)
(18.8671 0.156863 15.7858)
(18.9752 0.269809 15.7833)
(19.1486 0.395826 15.7796)
(19.3959 0.532599 15.7747)
(19.7312 0.670366 15.7678)
(20.1578 0.777001 15.7596)
(20.6575 0.824764 15.7509)
(21.1708 0.73402 15.742)
(21.5927 0.509014 15.7344)
(21.8074 0.217799 15.732)
(21.8222 -0.0622757 15.7317)
(21.6949 -0.25147 15.7288)
(21.4732 -0.373948 15.7314)
(21.2217 -0.441845 15.7377)
(20.9347 -0.469759 15.7446)
(20.6886 -0.473129 15.7488)
(20.3817 -0.45079 15.756)
(20.2256 -0.43949 15.7602)
(19.8539 -0.421954 15.7663)
(18.9152 0.0408088 15.8675)
(18.9649 0.123216 15.8667)
(19.0766 0.211418 15.8648)
(19.2538 0.308725 15.8623)
(19.5026 0.412766 15.8583)
(19.8312 0.51486 15.8538)
(20.2436 0.591575 15.848)
(20.7006 0.623322 15.8419)
(21.1994 0.549979 15.8355)
(21.5362 0.390591 15.8306)
(21.8106 0.177379 15.8287)
(21.7986 -0.0423963 15.8284)
(21.694 -0.18728 15.8261)
(21.4944 -0.283459 15.8262)
(21.2591 -0.336647 15.8316)
(20.9862 -0.360726 15.8372)
(20.7472 -0.366036 15.8402)
(20.4445 -0.351719 15.8454)
(20.2872 -0.344064 15.8483)
(19.9129 -0.33116 15.8527)
(19.0057 0.0293499 15.9434)
(19.0566 0.0886181 15.9429)
(19.1707 0.151772 15.9416)
(19.3503 0.220921 15.9398)
(19.6 0.293908 15.9372)
(19.924 0.364673 15.9341)
(20.322 0.416993 15.9302)
(20.7583 0.433813 15.9263)
(21.2078 0.387048 15.9222)
(21.5526 0.26921 15.9189)
(21.7634 0.116161 15.9178)
(21.7982 -0.0201758 15.9176)
(21.7128 -0.125941 15.9161)
(21.53 -0.196414 15.9162)
(21.3072 -0.236289 15.9198)
(21.0451 -0.254729 15.9235)
(20.8115 -0.259634 15.9254)
(20.512 -0.25041 15.929)
(20.3536 -0.245146 15.9309)
(19.9768 -0.236231 15.934)
(19.0912 0.0176665 16.0151)
(19.1428 0.0533685 16.0148)
(19.2585 0.0913046 16.0141)
(19.4395 0.132682 16.013)
(19.6894 0.175886 16.0116)
(20.0101 0.217737 16.0098)
(20.3987 0.247261 16.0077)
(20.8198 0.258994 16.0054)
(21.2445 0.227913 16.0033)
(21.5836 0.162375 16.0015)
(21.7861 0.0693656 16.0009)
(21.8188 -0.010628 16.0009)
(21.7465 -0.0730714 15.9997)
(21.5755 -0.115436 15.9996)
(21.3616 -0.139672 16.0026)
(21.1071 -0.151365 16.0051)
(20.8769 -0.15501 16.0062)
(20.5795 -0.150174 16.0085)
(20.4208 -0.147418 16.0098)
(20.0433 -0.142378 16.0117)
(19.1721 0.00588288 16.0828)
(19.2239 0.0177877 16.0825)
(19.3401 0.0304292 16.082)
(19.5216 0.0441862 16.0814)
(19.7716 0.0583987 16.0807)
(20.09 0.0720232 16.0799)
(20.4763 0.0809874 16.079)
(20.8825 0.0857468 16.0782)
(21.3227 0.0734026 16.0775)
(21.6125 0.0528321 16.0769)
(21.8591 0.028925 16.0768)
(21.8584 -0.00857743 16.0763)
(21.7996 -0.0266894 16.0758)
(21.6347 -0.0394412 16.0756)
(21.4238 -0.046747 16.0756)
(21.1718 -0.0507299 16.0755)
(20.9437 -0.0520721 16.0753)
(20.6469 -0.0504947 16.0752)
(20.4874 -0.0495912 16.0749)
(20.1083 -0.0477828 16.0747)
(15.8479 0.20803 13.253)
(16.2789 0.312818 13.247)
(15.9952 0.103173 13.2377)
(15.8817 0.491008 13.2059)
(15.3197 0.626262 12.943)
(14.3056 0.894068 12.6509)
(16.4572 0.144095 13.7901)
(16.603 0.26136 13.7819)
(16.4309 0.347774 13.7722)
(16.2585 0.628115 13.735)
(15.9346 0.927414 13.675)
(15.3204 1.49895 13.6097)
(14.2579 2.75761 13.4443)
(11.1309 4.95255 12.5164)
(-2.48777 0.363793 9.18761)
(-0.45326 -0.237515 10.9837)
(4.01229 -0.646826 11.6612)
(8.24817 -1.00143 11.823)
(8.86506 -0.38238 11.2178)
(10.7438 -0.692138 11.3602)
(16.9468 0.151325 14.201)
(16.9499 0.277204 14.1944)
(16.8554 0.50809 14.1778)
(16.6967 0.801519 14.1468)
(16.4314 1.25375 14.105)
(16.0582 2.08419 14.0247)
(15.5996 3.82745 13.8994)
(15.3113 6.28765 13.5435)
(2.12145 -0.622701 8.92583)
(10.25 -1.2027 9.94439)
(13.7467 -1.8751 11.281)
(15.6872 -1.97048 12.7063)
(17.3194 -1.44788 13.5846)
(17.3541 -1.16691 13.5655)
(17.805 -0.984112 13.6682)
(17.2446 0.132905 14.4568)
(17.2484 0.306276 14.4507)
(17.1845 0.540222 14.4361)
(17.0779 0.865361 14.4107)
(16.9404 1.34796 14.378)
(16.766 2.17842 14.3033)
(16.909 3.67662 14.2012)
(17.1375 5.65382 14.0051)
(20.8007 8.44907 13.4222)
(22.335 3.09279 12.5627)
(17.7918 -2.10622 12.7349)
(19.8149 -1.98137 13.7723)
(19.6979 -1.97709 13.6847)
(19.387 -1.97847 13.7893)
(19.0028 -1.8073 13.9874)
(18.7757 -1.33977 14.1711)
(18.7571 -1.1983 14.1869)
(18.7464 -1.01606 14.1765)
(17.494 0.127707 14.6703)
(17.5016 0.319593 14.6647)
(17.4697 0.565205 14.6517)
(17.4216 0.901014 14.6305)
(17.3826 1.38836 14.6011)
(17.4203 2.13517 14.5433)
(17.7452 3.41057 14.4583)
(19.2841 4.73754 14.3211)
(21.4616 5.23851 14.1301)
(23.3896 2.98831 13.8906)
(24.6133 0.684864 13.6967)
(23.0209 -1.84494 13.7282)
(21.3644 -1.91533 14.0546)
(20.7227 -1.7514 14.161)
(20.3813 -1.78454 14.1373)
(19.9413 -1.81434 14.1977)
(19.5008 -1.65689 14.3097)
(19.1942 -1.29593 14.4182)
(19.1385 -1.16147 14.4313)
(19.0321 -1.03405 14.4394)
(17.7096 0.11965 14.8535)
(17.7227 0.323752 14.8487)
(17.7201 0.572353 14.8375)
(17.7216 0.903734 14.8189)
(17.7697 1.36523 14.7948)
(17.9265 2.03477 14.7434)
(18.4197 2.96074 14.6911)
(19.7786 4.13177 14.5661)
(21.9619 3.45925 14.4449)
(23.267 2.34615 14.3509)
(23.6153 0.187818 14.3109)
(22.9127 -0.958223 14.3309)
(21.6587 -1.53112 14.4013)
(21.0845 -1.59293 14.4604)
(20.701 -1.63789 14.469)
(20.255 -1.61431 14.515)
(19.8443 -1.48252 14.5867)
(19.5182 -1.20697 14.6567)
(19.4428 -1.1201 14.6656)