# vtk DataFile Version 2.0
sampleSurface
ASCII
DATASET POLYDATA
POINTS 3098 float
0.746192 0 -5.00894e-05 -6.50534 1.11022e-16 -4.7391e-05 0.739507 0 7.49995 7.99812 0
1.94289e-05 -6.5124 -1.11022e-16 7.49992 7.99235 -1.11022e-16 7.50019 -13.7546 0 -1.50031e-05
0.734852 -1.11022e-16 14.9998 15.2496 -1.11022e-16 6.60617e-05 -13.7602 0 7.49982 -6.51784
-1.11022e-16 14.9998 15.2414 -1.11022e-16 7.50009 7.98685 0 14.9998 -13.7648 0
14.9999 -20.9938 0 4.36099e-06 15.2348 -1.11022e-16 14.9998 -20.9936 2.22045e-16 7.49977
22.5022 0 1.49541e-05 0.735071 0 22.4998 -6.51815 -1.11022e-16 22.4999 22.4915
0 7.49989 7.98745 -1.11022e-16 22.4998 -20.9933 -1.11022e-16 14.9999 -13.7652 1.11022e-16
22.4999 22.4829 -1.11022e-16 14.9998 15.2356 0 22.4998 -28.2515 0 2.62893e-05
-28.2534 0 7.50012 29.7556 -1.11022e-16 -4.54549e-05 0.735819 1.11022e-16 29.9999 29.7426
0 7.4992 -6.51767 0 29.9999 -20.9933 -1.11022e-16 22.5 7.98856 0
29.9999 22.4839 1.11022e-16 22.4999 -28.255 0 15 -13.7649 0 30
29.7256 0 14.9997 15.237 0 29.9999 -35.5072 -1.11022e-16 5.90779e-05 -28.2551
0 22.5 -35.5123 1.11022e-16 7.50007 -20.993 1.11022e-16 30 36.9932 0
-7.53554e-05 29.7252 1.11022e-16 22.4999 22.4857 -1.11022e-16 29.9999 0.736256 -1.11022e-16 37.5
37.0663 -1.11022e-16 7.5 -6.5174 0 37.5 7.98913 1.11022e-16 37.5 -35.5169
-2.22045e-16 15 36.9578 0 14.9999 -13.7648 0 37.5 15.2378 0
37.5 -28.255 0 30 -35.5174 0 22.5 29.7273 -1.11022e-16 30
-42.7594 0 0.000106246 -20.9929 1.11022e-16 37.5 36.9398 -3.33067e-16 22.4999 -42.765
0 7.50013 22.4866 -1.11022e-16 37.5 44.3067 1.11022e-16 -0.000173064 44.3156 -5.55112e-17
3.74923 44.3638 -1.11022e-16 7.50044 0.736588 -1.11022e-16 45 -42.7692 2.22045e-16 15.0001
-6.51713 0 45 7.98959 0 45 -35.5174 0 30 44.2537
1.11022e-16 14.9995 -28.2549 0 37.5 -13.7646 -2.22045e-16 45 15.2384 1.11022e-16
45 36.9405 0 30 29.7284 0 37.5 47.8983 5.55112e-17 -0.000231375
47.9106 0 3.74943 -42.7696 1.11022e-16 22.5 48.0131 0 7.50081 44.229
-2.22045e-16 22.4999 -20.9927 -1.11022e-16 45 -50 -1.11022e-16 0.000116555 22.4873 -1.11022e-16
45 -50 -1.11022e-16 7.50012 51.4805 0 -0.000354952 -35.5173 1.11022e-16 37.5
51.6484 5.55112e-17 3.75115 -50 -2.22045e-16 15.0001 51.6711 0 7.50084 -42.7696
0 30 0.736735 -1.11022e-16 52.5 36.9419 0 37.5 51.4953 -1.11022e-16
11.2492 -6.51706 0 52.5 7.98975 0 52.5 -28.2549 0 45
44.2289 -1.11022e-16 30 51.37 -5.55112e-17 14.9994 29.729 -1.11022e-16 45 -13.7646
0 52.5 51.3052 -2.1684e-19 18.7496 51.3048 -2.60209e-18 18.8318 15.2386 -2.22045e-16
52.5 51.3708 -2.38524e-18 18.7496 -50 1.11022e-16 22.5 54.9985 0 -0.00260162
55.0346 0 1.87535 55.1369 0 3.75138 55.3085 5.55112e-17 7.50038 51.2883
-5.55112e-17 22.4998 55.0461 -5.55112e-17 11.249 -20.9927 0 52.5 56.7456 0
0.0299735 56.7783 -2.77556e-17 1.87544 -42.7696 0 37.5 54.8698 0 14.9993
56.8619 2.77556e-17 3.75216 22.4876 1.11022e-16 52.5 -35.5173 -1.11022e-16 45 54.8229
0 17.1162 51.2808 6.93889e-18 26.2499 55.7413 -6.93889e-18 14.9994 54.8037 0
18.7496 44.2298 -1.11022e-16 37.5 36.9422 -2.22045e-16 45 -50 0 30
58.4645 0 -0.244693 58.5154 0 1.88535 58.9168 0 -0.257294 58.9375
1.38778e-17 1.84572 58.8346 1.38778e-17 4.04008 59.1468 -3.46945e-18 1.82581 59.2027 0
-0.270676 59.0815 0 3.9148 54.7907 0 22.4998 59.2532 0 -0.267831
59.2573 0 1.824 58.2324 -1.38778e-17 11.2624 59.254 0 3.02719 58.004
1.38778e-17 12.6256 59.2576 -3.46945e-18 3.82483 51.283 -6.245e-17 30 57.6498 2.77556e-17
14.9995 -28.2548 1.11022e-16 52.5 59.2774 -2.77556e-17 7.62697 58.8187 2.77556e-17 11.263
58.0011 -1.38778e-17 14.9995 0.736891 0 60 58.3071 0 14.9994 29.7293
1.11022e-16 52.5 59.2786 -2.77556e-17 11.2636 -6.5169 0 60 57.4289 2.77556e-17
18.7498 7.98997 -1.11022e-16 60 58.8533 5.55112e-17 14.9994 54.7868 1.249e-16 26.2499
58.0003 -1.38778e-17 18.7498 58.1668 0 18.7498 59.2769 -2.77556e-17 14.9994 51.2799
6.93889e-18 33.75 -13.7644 0 60 57.3667 0 22.4999 58.7945 0
18.7497 15.2389 1.11022e-16 60 -42.7696 -1.11022e-16 45 59.2786 -2.77556e-17 18.7497
57.9997 2.77556e-17 22.4999 58.1285 -6.245e-17 22.4999 54.7871 0 30 -50
0 37.5 58.7775 2.77556e-17 22.4999 57.3544 0 26.25 44.2301 -1.11022e-16
45 -35.5173 -2.22045e-16 52.5 59.2769 0 22.4998 51.283 -6.93889e-18 37.5
-20.9926 1.11022e-16 60 58.0001 0 26.25 58.1216 0 26.25 22.4878
1.11022e-16 60 36.9426 0 52.5 54.7861 -8.32667e-17 33.75 58.7756 0
26.25 57.3526 -1.66533e-16 30 59.2786 0 26.25 57.9997 -2.08167e-17 30
58.1203 2.08167e-17 30 51.28 0 41.25 58.7742 -5.55112e-17 30 -28.2547
0 60 54.7871 0 37.5 59.2769 0 30 57.3525 0
33.75 29.7295 0 60 58.0002 0 33.75 58.1205 -6.93889e-18 33.75
-50 0 45 0.736925 0 67.5 -42.7695 0 52.5 58.7752
-2.77556e-17 33.75 -6.5169 3.33067e-16 67.5 7.98998 -1.11022e-16 67.5 59.2786 2.77556e-17
33.75 51.2831 -3.46945e-17 45 57.3524 5.55112e-17 37.5 54.7862 1.38778e-17 41.25
44.2303 1.11022e-16 52.5 -13.7644 0 67.5 57.9998 0 37.5 58.1202
4.16334e-17 37.5 15.2389 -1.11022e-16 67.5 58.7741 0 37.5 -35.5171 1.11022e-16
60 59.2769 0 37.5 36.9425 0 60 57.3524 -5.55112e-17 41.25
-20.9926 -1.11022e-16 67.5 51.2801 -6.93889e-18 48.75 54.787 0 45 22.4878
2.22045e-16 67.5 58.0002 6.93889e-18 41.25 58.1204 0 41.25 58.7752 -2.77556e-17
41.25 59.2786 -2.77556e-17 41.25 -50 0 52.5 57.3524 0 45
-28.2547 1.11022e-16 67.5 54.7862 -2.77556e-17 48.75 51.2831 -6.245e-17 52.5 57.9998
6.93889e-18 45 58.1202 -6.93889e-18 45 -42.7695 -1.11022e-16 60 29.7296 0
67.5 58.7741 2.77556e-17 45 59.2769 0 45 44.2304 -2.22045e-16 60
0.737014 0 75 57.3524 0 48.75 -6.51679 -1.11022e-16 75 7.99012
-2.22045e-16 75 58.0002 -6.93889e-18 48.75 58.1204 0 48.75 54.787 -1.38778e-17
52.5 51.2801 0 56.25 -13.7644 0 75 -35.5171 -1.11022e-16 67.5
58.7752 2.77556e-17 48.75 15.239 0 75 59.2786 2.77556e-17 48.75 36.9428
2.22045e-16 67.5 57.3524 0 52.5 -20.9926 1.11022e-16 75 -50 -1.11022e-16
60 57.9998 6.93889e-18 52.5 22.4879 0 75 58.1202 -6.93889e-18 52.5
54.7862 -1.38778e-17 56.25 58.7741 2.77556e-17 52.5 51.2831 -1.38778e-17 60 59.2769
-2.77556e-17 52.5 -42.7695 0 67.5 -28.2547 1.11022e-16 75 57.3524 0
56.25 29.7296 0 75 44.2304 -1.11022e-16 67.5 58.0002 2.08167e-17 56.25
58.1204 6.93889e-18 56.25 54.7871 0 60 58.7752 2.77556e-17 56.25 59.2786
2.77556e-17 56.25 51.2801 0 63.75 0.737004 -1.11022e-16 82.5 -6.51683 0
82.5 7.99007 1.11022e-16 82.5 -35.5171 0 75 57.3524 0 60
57.9998 1.38778e-17 60 58.1202 4.85723e-17 60 36.9426 1.11022e-16 75 -13.7644
1.11022e-16 82.5 15.239 -2.22045e-16 82.5 58.7741 2.77556e-17 60 -50 2.22045e-16
67.5 54.7862 -2.77556e-17 63.75 59.2769 -2.77556e-17 60 51.2831 -6.245e-17 67.5
-20.9926 -1.11022e-16 82.5 22.4879 1.11022e-16 82.5 57.3524 0 63.75 58.0002
6.93889e-18 63.75 58.1204 6.93889e-18 63.75 -42.7695 0 75 58.7752 -2.77556e-17
63.75 54.787 0 67.5 59.2786 2.77556e-17 63.75 44.2304 0 75
-28.2547 -1.11022e-16 82.5 29.7297 0 82.5 51.2801 0 71.25 57.3524
0 67.5 57.9998 1.38778e-17 67.5 58.1202 4.85723e-17 67.5 58.7741 2.77556e-17
67.5 -35.5171 0 82.5 59.2769 -2.77556e-17 67.5 54.7862 -6.93889e-17 71.25
0.737067 -1.11022e-16 90 -50 -1.11022e-16 75 -6.51675 -1.11022e-16 90 7.99018
1.11022e-16 90 36.9429 2.22045e-16 82.5 51.2831 1.17961e-16 75 -13.7643 0
90 15.239 -1.11022e-16 90 57.3524 0 71.25 58.0002 6.93889e-18 71.25
58.1204 6.93889e-18 71.25 58.7752 -2.77556e-17 71.25 -20.9925 1.11022e-16 90 59.2786
2.77556e-17 71.25 22.488 1.11022e-16 90 54.7871 0 75 -42.7695 0
82.5 44.2305 0 82.5 51.2801 -6.93889e-18 78.75 -28.2547 -2.22045e-16 90
57.3524 0 75 29.7297 -1.11022e-16 90 57.9998 1.38778e-17 75 58.1202
4.85723e-17 75 58.7741 2.77556e-17 75 59.2769 -2.77556e-17 75 54.7862 0
78.75 -50 0 82.5 -35.5171 1.11022e-16 90 51.2831 -1.80411e-16 82.5
36.9427 1.11022e-16 90 57.3524 0 78.75 0.737038 0 97.5 -6.5168
0 97.5 58.0002 6.93889e-18 78.75 7.9901 -1.11022e-16 97.5 58.1204 6.93889e-18
78.75 58.7752 -2.77556e-17 78.75 -13.7644 2.22045e-16 97.5 59.2786 2.77556e-17 78.75
15.239 0 97.5 54.787 -1.38778e-17 82.5 -42.7695 -1.11022e-16 90 -20.9926
-1.11022e-16 97.5 22.4879 0 97.5 44.2304 1.11022e-16 90 51.2801 0
86.25 57.3524 0 82.5 57.9998 -6.93889e-18 82.5 58.1202 4.85723e-17 82.5
58.7741 2.77556e-17 82.5 -28.2547 0 97.5 59.2769 -2.77556e-17 82.5 29.7297
1.11022e-16 97.5 54.7862 1.38778e-17 86.25 -50 0 90 57.3524 0
86.25 51.2831 -6.93889e-18 90 -35.5171 -1.11022e-16 97.5 58.0002 1.38778e-17 86.25
58.1204 6.93889e-18 86.25 36.9429 2.22045e-16 97.5 58.7752 -2.77556e-17 86.25 59.2786
2.77556e-17 86.25 0.73709 -1.11022e-16 105 -6.51673 0 105 7.9902 -1.11022e-16
105 54.7871 0 90 -13.7643 0 105 15.239 1.11022e-16 105
-42.7695 -1.11022e-16 97.5 57.3524 0 90 51.2801 0 93.75 44.2305
1.11022e-16 97.5 57.9998 1.38778e-17 90 -20.9925 2.22045e-16 105 58.1202 4.85723e-17
90 22.4881 0 105 58.7741 2.77556e-17 90 59.2769 -2.77556e-17 90
54.7862 0 93.75 -28.2547 0 105 29.7297 0 105 -50
-1.11022e-16 97.5 57.3524 0 93.75 51.2831 -1.04083e-16 97.5 58.0002 6.93889e-18
93.75 58.1204 6.93889e-18 93.75 58.7752 -2.77556e-17 93.75 -35.5171 0 105
59.2786 2.77556e-17 93.75 36.9427 -1.11022e-16 105 54.787 1.38778e-17 97.5 0.737054
-1.11022e-16 112.5 -6.51679 2.22045e-16 112.5 7.99012 -1.11022e-16 112.5 57.3524 0
97.5 -13.7644 0 112.5 -42.7695 0 105 57.9998 1.38778e-17 97.5
51.2801 -6.93889e-18 101.25 58.1202 4.85723e-17 97.5 15.239 -1.11022e-16 112.5 58.7741
2.77556e-17 97.5 44.2305 1.11022e-16 105 59.2769 -2.77556e-17 97.5 -20.9926 1.11022e-16
112.5 22.4879 -1.11022e-16 112.5 54.7862 0 101.25 -28.2547 0 112.5
-50 2.22045e-16 105 29.7297 0 112.5 57.3524 0 101.25 58.0002
1.38778e-17 101.25 58.1204 6.93889e-18 101.25 51.2831 2.08167e-17 105 58.7752 -2.77556e-17
101.25 59.2786 2.77556e-17 101.25 -35.5171 -2.22045e-16 112.5 36.9429 1.11022e-16 112.5
54.7871 0 105 57.3524 0 105 57.9998 1.38778e-17 105 0.737101
-1.11022e-16 120 58.1202 4.85723e-17 105 -6.51672 0 120 51.2801 6.93889e-18
108.75 7.99022 -1.11022e-16 120 58.7741 2.77556e-17 105 -42.7695 0 112.5
59.2769 -2.77556e-17 105 -13.7643 -1.11022e-16 120 44.2305 0 112.5 15.239
-1.11022e-16 120 54.7862 -2.77556e-17 108.75 -20.9925 0 120 22.4881 0
120 57.3524 0 108.75 -50 0 112.5 58.0002 6.93889e-18 108.75
[...]
POINT_DATA 3098
FIELD attributes 2
p 1 3098 float
2.37484 2.31683 2.78008 2.48703 2.71142 2.84293 2.2794 2.59238 2.66308 2.66084 2.55299
3.06426 2.71122 2.53862 2.15887 2.88805 2.54832 2.89313 2.43208 2.39612 3.35627
2.52514 2.45599 2.36672 3.1107 2.67418 2.07706 2.457 3.32984 2.39954 3.77607
2.36592 2.27985 2.48656 2.853 2.39387 2.33622 3.49317 2.62737 2.12532 2.22778
2.47416 2.24373 3.75383 3.03147 2.80183 2.3868 4.04481 2.35525 2.47332 2.43742
4.0322 2.33024 2.61171 2.18649 2.29411 3.00868 2.25017 2.2376 3.1707 2.52369
2.78255 4.76841 3.85143 4.35884 2.37651 2.51819 2.34618 2.46134 2.25354 4.52725
2.17793 2.32306 2.59808 3.15751 3.01402 5.4843 4.01081 2.41372 4.31329 3.34051
2.2306 2.32465 2.76442 2.5463 5.5493 2.24309 3.73982 2.55245 4.92866 2.37731
2.37364 3.19204 6.17255 2.3442 2.45738 2.17108 3.37036 4.60642 2.99509 2.32198
3.33559 3.3329 2.5947 3.33896 2.46984 4.85308 3.39864 3.30574 5.03304 3.2194
6.58868 2.23015 4.72303 3.04716 2.36392 4.83821 2.22543 2.76196 2.23555 4.09417
3.3174 4.83502 3.51919 3.43462 3.17748 2.43627 5.14916 2.2148 5.11891 2.09993
0.723571 1.85181 5.0909 0.244141 3.25793 5.10768 1.79319 6.56695 0.48212 6.03639
-0.240432 3.43689 4.81135 2.17156 4.66124 5.57203 4.4359 2.37378 3.98543 2.99324
5.44778 2.34477 3.47163 2.45757 3.98323 3.38131 3.22305 3.10184 3.75673 3.50077
2.32277 3.16078 2.82551 2.59693 2.35458 2.60702 2.90769 2.82386 3.4698 2.42105
2.55357 3.25829 3.42459 2.23511 2.34584 3.52154 2.23194 3.00033 2.92327 2.76819
3.18073 3.52975 2.66651 3.32755 2.46891 3.06499 2.9847 3.5062 2.71414 2.17436
3.54644 2.5065 3.37236 3.0054 3.09959 3.0187 2.41079 2.37459 2.35206 2.75081
2.34553 2.45921 2.5462 3.51828 3.39389 3.54943 3.43567 2.32292 3.12152 3.03749
2.60116 2.75588 2.23715 2.54073 3.20303 3.40127 2.23277 3.51542 3.55678 2.77671
3.12928 3.04751 2.77695 2.56975 2.40735 3.41722 2.17607 3.57425 3.547 3.14901
3.06554 2.35266 3.02061 2.78653 2.57255 3.4707 2.37532 3.43849 2.34599 2.46103
3.17065 3.08989 3.60085 3.56183 2.32231 2.23846 2.82445 2.60542 2.62039 3.22839
3.47296 2.23229 2.40722 3.20887 2.78414 3.12682 3.63387 2.85534 3.60013 2.6465
2.3535 2.17615 3.50893 3.03284 3.50784 3.24489 3.16557 3.66712 2.90822 2.70997
3.61642 2.37597 2.3464 2.46288 2.23838 3.54849 3.2872 3.20622 3.2477 2.3217
2.60957 2.94125 2.40783 3.69821 2.73694 3.64878 2.2315 2.79072 3.58051 3.31811
3.23953 2.35348 2.98738 3.72465 2.79278 3.535 2.17551 3.04248 3.65777 3.61201
3.35178 3.27148 3.01151 2.23764 2.81083 3.74711 2.37709 2.40791 2.34726 2.46502
3.26199 3.68288 2.32162 2.61352 3.63484 3.37345 3.29556 3.0482 2.23113 2.85707
2.79629 3.76545 2.35295 3.55463 3.6857 2.17506 3.65714 3.04993 3.39743 3.31767
3.06174 2.86398 3.78024 2.4076 2.23699 3.7061 3.27187 3.67078 2.37858 2.34852
3.40913 2.46728 3.33147 3.0868 2.32203 2.89756 2.61713 3.79278 2.35237 2.23114
2.8009 3.56779 3.70481 3.68618 3.42563 3.34583 3.09133 2.17488 2.89451 3.05548
3.80258 2.40717 3.69441 3.72057 2.23661 3.43198 3.35424 3.27876 3.11058 2.92197
2.38011 2.34979 2.46936 3.80984 2.3227 2.62015 2.35197 3.70411 3.71538 3.57624
3.44268 2.23154 3.36269 2.80454 3.10851 2.91181 3.81516 2.17503 3.05968 2.40686
3.70746 3.72894 3.44419 3.36615 3.12228 2.23654 2.93327 3.28374 3.81973 2.38157
2.35099 2.47118 3.71432 2.32351 2.35184 3.45223 3.72196 3.37199 2.62258 3.11768
3.58194 2.92062 2.23216 2.80733 3.82309 2.17541 2.40678 3.06266 3.71576 3.45191
3.37363 3.73384 3.12935 2.9399 2.23676 3.28698 3.82556 3.72032 3.4577 2.38279
3.37721 2.35196 3.725 2.47267 3.12236 2.35198 2.92481 2.32432 3.58523 2.6244
3.82689 2.23286 2.80939 3.71963 2.40691 3.45524 2.17587 3.37671 3.13196 3.06467
3.73536 2.94202 3.82765 2.2371 3.2889 3.72261 3.45959 3.37887 3.12356 3.72545
2.92549 2.35224 2.38382 2.35269 2.47389 3.58706 2.32502 2.62571 3.82778 2.23348
2.8108 3.72063 3.45596 3.37726 2.40716 3.13223 2.94189 3.73542 2.17632 3.06604
3.82775 2.23749 3.29021 3.72271 3.45947 3.3786 3.12304 2.92459 3.72532 2.35258
3.58798 2.38459 2.35324 2.47475 3.82757 2.32563 2.62653 3.72026 2.23397 3.45539
3.37654 2.81174 2.40745 3.1313 2.94063 3.73485 2.17664 3.0669 3.82713 2.23781
3.72206 3.29087 3.45875 3.37777 3.1221 2.92337 3.72412 2.35287 3.58828 3.82656
2.38516 2.35361 2.47538 2.32606 3.7194 2.62705 3.45455 3.37563 3.13037 2.40772
2.93951 2.23433 2.8123 3.73374 2.17687 3.06731 3.82605 3.72118 2.23806 3.45797
3.37693 3.29116 3.1213 2.92244 -1.27428 -1.34787 3.72321 -1.21092 -1.11282 -1.22834
-1.14455 -1.28871 2.35312 -1.1725 -1.07795 -1.20712 3.82567 3.58828 -1.10049 -1.2692
-1.16593 -1.20783 -1.16268 -1.2035 -1.11998 -1.15894 -1.11728 2.38563 -1.03095 -1.02902
3.71866 2.35388 -1.30919 2.47583 -1.21618 -1.04127 3.45391 -1.0394 3.37495 2.32637
3.12979 2.62734 -1.09463 -1.09288 -1.32967 2.93884 -1.25527 2.40794 -1.01487 -1.03609
-1.14554 -1.1437 -0.973593 3.73288 2.23456 -1.27626 -0.904678 -1.33742 2.81258 -1.18328
-1.18142 -0.905835 -0.9458 -1.28459 -0.915451 -0.924261 -1.33827 -1.20486 -1.20302 2.17696
-0.877503 3.82525 -0.826613 -0.987759 3.06749 -0.820757 -1.28583 -1.2139 -1.21207 -1.335
-1.02095 3.72058 -0.852488 3.45751 3.37646 -0.886627 3.12102 2.23822 -1.04137 -1.28314
-1.21559 -1.21377 2.92215 -0.812384 -0.812681 3.29117 -0.777408 -1.33074 -0.919132 -0.735569
-1.05093 3.72231 -0.729085 -1.21362 -1.21181 -1.27944 -0.936641 -0.751357 -1.32584 -1.05373
-0.781298 2.35331 -0.94874 3.82499 -1.21065 -1.20885 3.58815 -1.275 -0.808603 -1.05313
-0.692462 -0.685978 -1.32038 -0.661187 -0.950217 3.71828 -0.630724 -0.827136 3.45378 -1.20682
3.37487 -1.20503 -0.621626 2.38596 3.1301 -1.2699 2.35404 2.47612 -1.05156 2.9393
-0.635071 -0.952624 -0.837646 2.32654 2.40812 -1.31595 2.62749 -0.657989 3.73248 -1.20218
-1.2004 -0.842304 2.23468 -1.26576 -1.04898 -0.681536 -0.949971 2.81276 -1.31382 -0.698723
3.82491 -0.843675 -1.19845 -1.19667 2.17696 -0.950278 -1.04519 -0.582494 -1.26383 3.06766
-0.57476 -0.709652 -0.55808 3.72049 -0.538084 -0.843964 3.45768 3.37668 -0.528955 -1.31265
3.12158 -0.715579 -1.1968 -1.19504 -0.945022 2.92282 -0.533937 -1.04198 2.2383 -1.26271
3.29124 -0.546819 -0.843108 3.72234 -0.718014 -0.562721 -0.94411 -1.31142 -1.19577 -1.194
-1.04056 -0.840451 -0.575952 -0.719445 2.35342 3.82498 -1.26144 3.5879 -0.585817 -0.94081
-0.485686 -0.479889 -0.468618 3.71832 -1.3104 -1.03944 -1.19447 -1.19269 -0.7195 -0.837893
-0.455117 3.45391 3.375 -0.446395 -0.592198 3.13044 2.93968 -1.2603 -0.446124 2.38616
2.35411 2.47626 2.40824 -0.941587 -0.717652 -0.451641 -0.595727 2.32661 -0.836623 -1.03762
3.7325 2.62751 -1.1932 -1.19142 -1.31096 -0.460959 2.23467 -0.598171 -1.26079 2.81279
-0.715407 -0.47051 -0.937271 3.82513 -0.835478 -1.03578 -0.478657 -1.19363 -1.19185 2.17684
-1.31172 -0.599241 -0.440059 -0.435612 3.72076 3.06778 -0.428099 3.45799 -0.714318 3.37699
-0.419455 3.12206 -0.484668 -1.26147 -0.412576 2.92333 -0.936978 -0.832936 -0.41081 -0.598751
2.23829 -1.03579 -0.488817 -0.413326 -1.19426 3.29129 -1.19247 3.72217 -0.7132 -1.31166
-0.41961 -0.597529 -0.934586 -0.491746 -1.26131 -0.830533 -0.427294 3.82527 2.35347 -1.03593
-0.71056 3.58767 -1.19402 -1.19223 -0.434452 -0.493552 -0.596974 3.71887 -0.335515 -1.31157
-0.332598 -0.328305 3.45463 3.37575 -0.323342 -0.829838 -0.936377 3.13142 -0.44003 2.94073
-0.318753 -1.26117 -0.494154 -0.317109 -0.707952 -1.03506 2.40831 -0.596203 2.38627 -0.444135
2.35413 -0.318196 2.47629 -1.19387 -1.19207 3.7326 2.3266 -1.31181 -0.322431 2.62753
-0.829374 -0.493976 -0.932889 -0.447215 -1.26141 2.23461 -0.328381 -0.707007 3.82549 -0.594239
2.81286 -1.03433 -0.334395 -0.449359 -0.49392 -1.19417 -1.19238 3.72126 -0.317199 2.17667
-0.315954 3.45862 3.37765 -0.314189 -0.827551 3.06798 -1.31205 -0.3116 3.12294 -0.933697
-0.339064 2.92429 -0.59216 -0.308725 -0.706236 -0.450453 -1.26163 -0.307092 -0.493609 -1.03441
-0.342657 2.2382 -0.307081 3.72259 3.29163 -1.19441 -1.19262 -0.450778 -0.309682 -0.825989
-0.591209 -0.345589 -0.931485 -1.31214 -0.704147 -0.492509 -0.313995 3.8257 2.35344 -1.26161
-1.0344 -0.451075 -0.347706 -0.318921 3.58775 3.71936 -0.26245 -0.262681 3.45521 3.37635
-0.262642 -0.590332 -1.19429 -1.19249 -0.825637 3.13218 -0.491235 -0.261661 -0.322634 2.94152
-0.702138 -0.933336 -0.260137 -0.348887 -1.31216 -0.451144 -0.258866 -0.325721 2.40831 -0.258486
-1.26153 -1.03363 3.73281 2.38635 2.35416 -0.349382 2.47631 -0.490404 -0.588523 -0.260028
-0.328421 2.32656 -0.825317 -0.450566 2.62753 -1.19414 -1.19234 -0.701655 -0.263189 -0.929946
3.82599 2.23449 -1.31228 -0.349935 2.81286 -0.330483 -0.267074 3.72197 -0.489611 -1.26164
3.45948 -0.586741 -1.03293 3.37852 -0.449713 -0.196475 -0.198195 2.17646 3.12399 -0.199664
-0.270086 2.92538 3.06804 -0.199806 -0.331568 -0.823626 -0.350212 -0.701152 -0.198668 -1.19429
-1.1925 -0.930837 -0.197371 -0.272685 2.23807 -0.488283 -0.196849 -1.31258 3.72276 -0.449112
-0.332129 3.29159 -0.586183 -0.275204 -0.197861 -0.349909 -1.03299 -1.2619 -0.200101 3.82637
-0.822124 -0.699204 -0.332753 -0.277176 -1.19454 -1.19275 2.35333 -0.928713 -0.448492 -0.487014
-0.203053 3.72033 3.58757 -0.349333 3.45634 3.37749 -0.585537 -0.117177 -0.120042 -1.31263
3.13349 -0.122662 -0.205415 -0.278214 2.94287 -0.333142 -0.123691 -1.03314 -0.122371 -1.26182
-0.697267 -0.12076 -0.821955 -0.207535 -0.447461 2.40823 -0.34902 -0.486351 -0.27883 -0.120134
3.73317 -1.19431 -1.19251 -0.930845 -0.33293 2.38632 -0.120639 -0.209723 -0.583678 2.35413
2.47622 2.3265 -1.31274 2.62743 -0.122219 3.82667 -0.279566 -0.348591 -0.446442 -1.03248
-0.211519 2.23436 -1.26176 -0.697023 -0.33253 -0.124449 -0.821977 -0.485646 2.81273 3.7228
3.46039 3.37943 0.086874 0.0828286 3.12497 -0.280056 0.0795191 -0.126179 -1.19405 -0.927741
-1.19224 2.92633 -0.212499 -0.581731 0.0779443 2.1762 3.06806 0.0794979 -0.34776 -0.332351
-0.445786 0.0812654 -0.127879 -1.31297 -0.213185 0.0822382 -0.484067 -0.280005 -1.03189 3.72323
-0.696916 2.23787 -0.82075 -1.26187 0.0824555 -0.129736 3.29178 -0.581277 0.0813609 -0.34692
-0.332006 -0.92896 -0.214032 3.82696 -1.19401 -1.19221 -0.445138 -0.131379 -0.279735 0.079578
2.35318 3.72095 3.58753 -0.482466 3.45694 3.37806 -1.3132 0.079297 0.0745668 3.13398
-0.214645 0.0783245 -0.69557 -0.132279 0.0714101 -1.03188 2.94322 0.070003 -0.819686 -0.331226
-0.346359 -1.26201 0.0715909 -0.279753 -0.580913 0.0769033 0.0734319 -0.44392 -0.926888 -0.133015
2.40811 -1.19408 -1.19227 0.0745315 -0.214657 3.73349 0.0752224 -0.481798 0.0750326 -0.330505
-0.279527 2.38618 2.35401 -0.345777 2.476 -0.133965 -0.694186 0.0741189 -1.31378 3.82736
-1.03207 0.0736271 2.32637 -0.819601 -0.21451 2.62719 -0.442697 0.072795 -0.579509 -1.26249
3.72362 2.23415 3.46122 2.81247 3.38021 -0.134709 -0.929263 0.0728064 0.0718176 0.0540703
3.1256 -0.278908 0.0350132 -1.19444 -0.330037 -1.19263 0.0460599 2.92679 -0.481264 0.0302698
-0.214675 -0.344885 2.17591 0.0457289 0.0707223 3.06794 0.0333304 -0.694044 0.0720578 -0.134735
-1.31411 -0.442027 0.0483675 -1.03218 -0.819902 -0.577968 3.72366 0.0691254 -0.278285 2.23764
0.0345827 -1.26277 -0.329571 -0.214668 3.29172 0.0710691 -0.927059 0.0479792 -0.479892 -0.343983
-0.13468 3.82797 0.0676694 -1.19468 -1.19287 0.0327365 2.35298 3.72215 0.0702362 -0.694245
-0.441439 -0.278028 3.45817 3.37924 0.0667435 -0.214147 3.5873 0.0462417 3.135 -0.328773
-0.819536 -1.31426 -0.577611 2.94406 -1.0322 -0.135006 0.031051 -1.26293 -0.343358 0.066019
-0.478468 0.0702075 -0.929006 2.40793 -0.213617 -0.277752 -1.19485 -1.19304 0.044044 3.73412
-0.135183 -0.440265 -0.327995 0.0649394 -0.693684 0.0702193 0.0283785 -0.577428 2.38602 3.82853
-0.819207 2.3539 2.47577 -1.03236 -1.31449 -0.342744 2.32624 2.62691 -0.477917 -0.213514
0.0640993 -0.134701 3.72487 -0.277089 -1.26314 0.0418522 3.46241 3.38132 2.23395 0.0698638
-0.927078 3.12643 0.0699922 2.81215 2.92735 0.0632868 -0.327389 -0.439071 -1.19508 -1.19327
0.0640589 0.0638635 0.0266134 2.17563 -0.693045 3.06771 -0.134257 -0.576382 -0.213376 -0.34178
0.0670486 0.0696182 -0.819271 -0.276387 -1.03255 3.72441 -1.31449 -0.477391 0.0400699 2.23741
0.063864 3.29163 -0.32685 -1.26314 0.0678204 -0.438407 -0.929343 3.82902 -0.134312 0.0700864
-0.212717 0.0247827 -1.19507 -1.19326 3.72319 -0.693065 -0.34079 0.0634297 2.35277 -0.276013
3.45909 3.38006 -0.575207 0.0678047 3.13543 3.58703 2.94415 -0.819429 -0.476007 0.0389165
-1.03243 -0.325956 -1.31446 0.0704773 -0.13428 -0.437699 0.06319 -0.212056 -1.2631 2.40775
0.0668704 -0.927047 3.73448 -0.275604 0.0243246 -0.340031 -1.19502 -1.19321 -0.693104 -0.574999
0.0704129 -0.133604 3.82943 0.0634308 -0.325067 -0.474532 2.38581 -0.819054 2.3537 2.47553
-0.211869 0.0384345 -1.03223 0.0653995 2.32606 3.72588 -0.436318 2.62662 -1.31456 3.46334
3.38215 3.12684 -0.274849 0.16845 2.92739 0.175342 2.23374 0.162942 -1.26317 2.81174
-0.339196 0.0703879 -0.928846 0.0637942 0.173275 0.164573 -0.133011 0.0237126 0.177263 -0.692598
-1.19506 -1.19325 2.17538 -0.574828 -0.324277 3.06731 -0.211623 0.167232 -0.474115 0.063955
3.72452 0.177835 -0.818697 -0.43492 0.0636468 -0.274046 0.0710407 2.23719 -1.03216 0.0383218
0.167735 3.29127 -1.31467 -0.132995 3.82982 -0.337906 0.178767 -1.26326 -0.926609 -0.210915
3.7242 -0.323506 3.46007 3.38094 0.168006 2.35255 -0.692071 0.0636253 -0.573949 3.13595
-1.19512 -1.19331 0.0240716 0.0311182 2.94435 3.58645 0.0281646 0.0629506 0.071539 0.0263394
-0.473781 0.0263023 -0.273437 0.178153 0.0280642 -0.434318 -0.132936 -0.818481 0.0299406 -1.03213
-0.336641 0.167233 0.0304642 2.40755 -1.31467 -0.21021 0.0384445 0.0640495 3.73456 0.0304526
-0.322371 0.071479 -0.928633 0.177512 -1.26324 0.0308649 -0.573002 -0.691856 3.83005 -0.272797
0.0625929 -0.132271 -0.472619 0.0312333 -1.19507 -1.19326 0.166071 2.38536 -0.433745 2.35337
2.47503 3.7266 0.0239027 0.064507 -0.818378 0.0310374 3.46396 3.38266 2.32578 -0.335837
2.62607 3.12691 -0.209742 2.92709 -0.235314 0.0714508 -0.230061 0.175842 -1.03202 -0.238945
2.23338 0.0306064 -0.231514 -0.321314 2.81106 -1.3146 -0.237087 -0.227587 -0.13162 -0.926388
-0.2719 0.0304422 -1.26316 2.17501 0.0386841 0.164865 -0.234659 -0.57261 3.06659 -0.691614
0.0643491 -0.471371 0.0626025 3.72459 -0.226879 -0.43251 -1.19496 -1.19315 0.030227 -0.209275
0.0721817 -0.234147 -0.335076 2.23686 0.175299 -0.818107 3.29065 3.83019 -0.320503 -0.226222
0.0294542 0.0245241 -1.03187 -0.131292 3.72455 0.0643482 -0.27101 -0.234063 3.46027 3.38101
0.164029 -1.31481 2.35225 3.13551 2.94348 0.0287096 -0.928333 3.58563 -1.26337 -0.572248
0.0729004 -0.226739 -0.470878 -0.691291 -0.208509 -0.43129 0.174139 -0.333944 0.0626549 -1.19519
-1.19338 0.0389138 0.0284918 -0.234387 -0.319847 -0.130976 2.40727 -0.817924 0.065008 3.73427
-0.226886 -0.270382 -1.03207 0.0284103 0.16366 0.0731491 3.83029 -1.31495 -0.207731 -0.235171
0.0244101 -0.926429 -0.571537 -0.470579 -1.26353 -0.430846 -0.690965 3.72694 0.027818 2.38466
2.35279 3.46421 3.38277 -0.332895 2.47418 0.0657929 0.174577 -0.130267 3.12652 -0.228165
2.32522 2.92627 -0.318921 2.62506 -1.19536 -1.19356 -0.121318 -0.124257 0.0628878 -0.818031
2.23278 -0.269839 -0.124127 0.0273759 2.80988 0.0733802 -0.235843 0.0394411 0.163521 -1.03221
-0.207244 -0.122547 2.17443 3.06528 3.72401 0.0659086 -1.3147 -0.469726 0.0275847 -0.570878
-0.228275 -0.430482 -0.12957 -0.928683 -0.122111 -0.332406 -0.691071 -1.26332 2.23633 -0.318096
3.8303 0.173783 3.28934 0.0741916 -0.269144 0.0255798 -1.19519 -1.19339 -0.236375 3.7249
0.0278826 -0.818189 -0.122066 3.46058 3.38122 3.13531 -0.206835 2.35176 2.94293 0.0661201
0.0631865 3.58417 0.163461 -1.03208 -0.129245 -0.22914 0.0274505 -0.468877 -0.429601 -0.570751
-0.12226 -1.31445 -0.331927 -0.926513 0.0401562 -0.31753 0.0749053 -0.691135 2.40681 -1.26312
-0.268458 3.73347 -0.236459 0.17455 -1.19504 -1.19323 0.0668775 -0.206239 0.0271174 -0.818038
3.83006 -0.122712 -0.128947 -0.228584 3.72685 0.0258351 -1.03194 3.46403 3.38248 0.163679
0.0751106 2.3842 -0.428651 3.12576 -0.46853 2.35242 -0.330999 2.47351 2.92512 0.0275067
-0.570674 0.063614 0.17604 -0.317042 0.174421 2.32489 -1.31453 2.62408 -0.928501 -0.26797
-0.690976 0.174455 0.067656 -0.236551 -1.26325 -0.123157 2.23243 -0.205628 2.80857 0.175388
0.174108 -1.19525 -1.19345 -0.128368 0.0279996 2.17408 0.040925 -0.817947 3.06371 3.723
0.0752832 0.175879 -0.229224 -1.03222 -0.428205 -0.330055 2.23595 3.82961 -0.468408 -0.316206
3.28784 0.0677239 -0.570217 -0.123427 -0.267494 0.16388 0.0277191 0.176045 3.7242 -1.3146
-0.690786 -0.926754 -0.205245 3.45972 3.38023 -0.236384 3.13377 0.0271025 2.94095 -1.26336
-0.127803 2.35135 0.0640652 3.58256 0.0759542 -1.19537 -1.19357 0.176076 -0.818198 0.0274871
0.175023 -0.228349 0.0678306 -0.123519 -0.329575 -0.427905 -0.31545 2.40638 -0.467807 -0.266831
-1.03234 3.73214 -0.569776 -0.204886 0.0416024 0.175772 -0.691022 -0.127519 -0.929021 -1.31425
3.82912 0.0278978 -0.236232 0.16425 0.0765374 -1.26301 3.72596 3.46303 3.38135 0.0684417
3.1241 -1.19502 -1.19322 2.92304 -0.818366 0 2.38426 2.35261 0 2.47328
-0.123497 0.0645559 -0.314975 -0.329146 0.175594 2.32512 -0.266209 0 -0.427221 2.62337
0.0272209 0.0284224 -0.228853 -0.467236 -0.204322 0.174775 -1.03206 2.23261 -0.569834 2.80735
0 -0.127212 0.0767475 -0.691081 2.17419 -0.926729 -1.31388 3.72138 3.06203 0
0.0691387 -1.26267 -0.236043 0.0282204 0.17541 3.82843 2.23585 0.042167 0.164595 -1.19468
3.28612 -1.19288 -0.818129 -0.123495 0 -0.314625 -0.265846 -0.328427 3.72315 -0.426529
-0.203825 3.45862 3.37903 -0.467166 3.13217 -0.126646 2.93903 2.35107 -0.569746 -1.03182
0.0770369 -0.22797 3.58048 0.0280661 0 0.0692545 -0.690897 0.0649298 0.175413 -0.928674
0.175756 -1.31408 0.0283287 2.40609 -1.2629 3.7299 -0.26553 -0.235809 -0.314016 0
-0.327739 -0.203561 -0.818036 -0.123428 -1.19495 -1.19315 0.0284806 -0.426283 -0.126221 3.82722
-0.467094 0.0776488 0.164985 0.0695222 -0.569419 3.72411 -1.03222 3.46111 3.37933 0.175401
3.12167 0.0428764 2.92028 -0.690752 -0.228382 0 2.38343 -0.927112 2.35194 2.47191
-1.3143 0.0290063 2.32439 2.62122 -0.265058 -1.26315 -0.313494 -0.203332 2.2317 -0.327387
-0.12601 0.17547 2.80439 0.0653502 0.0780766 -0.426076 -0.818502 -1.19521 -1.19341 -0.1234
0.0700789 -0.46663 3.71831 -0.235606 2.1732 3.05843 0 0.0286352 -0.569116 0.17539
0.0288071 -1.03255 3.82557 2.23475 -0.691243 3.28231 3.72028 0.165216 -0.929618 3.45561
3.3759 -1.31395 3.12859 -0.264591 -0.20289 2.93507 -0.313155 -0.227539 -0.125792 0.0782297
-0.327054 2.34991 -1.26279 0.0706084 3.57638 0 -0.425444 0.0286223 -0.818915 -1.19483
-1.19303 0.0435231 -0.466262 -0.123315 0.175397 -0.569429 2.40493 0.176322 -1.03223 3.72572
-0.235394 0.0657987 -0.691546 -0.264303 -0.202457 -0.125297 -0.927283 3.82351 0.0289777 0.0784188
-0.312853 -1.3136 0 0.0706481 -0.326399 3.72054 0.0295594 3.45744 -1.26244 3.37555
-0.424918 3.11749 2.91578 0.165607 -0.818663 -0.227985 -0.466363 -1.19446 -1.19266 2.38088
2.34951 2.46854 -0.569556 0.175377 2.32178 2.61641 -0.12324 0.0294698 -1.03192 2.22877
2.79828 -0.124871 -0.202189 -0.263975 0.0789771 -0.691374 0.0708398 0 -0.312235 3.71249
-0.929112 2.17016 0.0439791 -0.235256 -0.32587 0.176184 3.05121 -1.31373 -0.424803 3.82022
-1.26257 2.23195 0.0661873 -0.818456 0.0293263 -0.466431 3.27421 3.71518 -1.19456 3.45054
-1.19277 3.37077 3.12325 2.92955 -0.56935 0.175399 2.34733 0.0793992 -0.124598 -0.2272
-0.201897 0.0713824 -0.263385 -1.03211 3.56734 0.165955 0.0297287 0 -0.691115 -0.31181
-0.123194 -0.325784 -0.927308 0.0292145 2.40235 -1.31383 -0.424697 3.71662 -1.26266 -0.466205
-0.818689 -0.235024 3.81472 -1.19465 -1.19285 0.177052 -0.569037 0.0796154 -0.124344 0.0719264
3.71203 -0.201366 0.0445952 3.44901 -0.262919 3.36711 3.10892 2.90706 0.0295588 -1.03224
-0.311801 0.175391 0 -0.691393 0.0663975 -0.325594 2.3814 -0.929583 2.35042 2.46801
-0.227571 -0.42434 2.32193 -0.123168 2.61414 -1.31326 0.166339 2.22818 -1.26209 -0.465922
2.79311 -0.81888 3.70126 0.0798022 0.0720394 -0.123839 0.0307203 0.0300271 -1.19404 -1.19224
2.16922 -0.200944 -0.569219 3.0444 -0.262896 3.80942 -0.311702 -0.234878 2.23092 -1.03169
3.70451 0 -0.691488 3.269 -0.325219 3.43979 3.35995 3.1121 0.175397 2.91812
0.176919 -0.927008 -0.4239 2.34607 -1.31257 0.0299068 3.56292 -0.465962 0.0722712 0.0803137