/*--------------------------------*- C++ -*----------------------------------*\
  =========                 |
  \\      /  F ield         | OpenFOAM: The Open Source CFD Toolbox
   \\    /   O peration     | Website:  https://openfoam.org
    \\  /    A nd           | Version:  10
     \\/     M anipulation  |
\*---------------------------------------------------------------------------*/
FoamFile
{
    format      ascii;
    class       surfaceScalarField;
    location    "0";
    object      phi;
}
// * * * * * * * * * * * * * * * * * * * * * * * * * * * * * * * * * * * * * //

dimensions      [0 3 -1 0 0 0 0];

internalField   nonuniform List<scalar> 
25067
(
36.0941
-1.8489
-0.0095086
36.1063
-0.406347
0.000850665
36.1405
1.36298
0.00161413
36.2328
3.59552
-0.000326279
36.4639
6.24076
-0.00110735
37.1762
10.2096
-0.00127819
39.4439
13.8159
0.00278762
17.6444
0.01395
36.4184
-1.82205
-0.0125353
36.4291
-0.415611
-0.000974599
36.4938
1.29794
0.000644881
36.6648
3.42546
-0.000259911
37.042
5.86478
-0.000770318
38.0545
9.19819
-0.00091309
40.0541
11.8155
0.00150285
43.2117
14.4829
0.00678945
45.9082
12.5788
-0.00143112
47.3842
7.66462
0.000949008
46.8822
1.50953
-0.00886105
44.8534
-2.58009
-0.0264856
42.191
-7.33611
0.0503069
36.6849
-5.31901
0.011728
37.7839
-2.46859
-0.0043572
37.3653
7.89372
-0.00167868
38.6577
18.2382
0.00281523
44.2855
31.6348
0.00613449
59.2692
43.7624
0.00862595
32.2349
-0.00353098
36.7253
-1.76044
-0.0146675
36.7335
-0.421108
-0.00223338
36.8247
1.20712
-0.000193194
37.0572
3.19376
-0.00034181
37.5284
5.39449
-0.000524223
38.5979
8.12902
-0.000109373
40.2353
10.1776
0.000991411
42.8702
11.8465
0.00311997
45.0631
10.3878
-0.00057078
46.2643
6.46191
-0.00036603
45.953
1.82601
-0.0047886
44.5099
-1.12575
-0.0109243
42.381
-5.23246
0.0253481
40.3497
-3.29484
0.00780416
39.0608
-1.18244
0.00285138
39.0882
7.86669
-0.000327196
40.9005
16.4235
0.00248227
46.3055
26.2251
0.00478325
57.4518
32.6101
0.00604114
20.269
-0.00137214
37.0122
-1.68093
-0.0161878
37.0182
-0.423533
-0.00315784
37.1296
1.09681
-0.000882637
37.4071
2.9171
-0.000499765
37.9356
4.86678
-0.000500009
38.9069
7.15798
-6.05254e-05
40.4591
8.62553
0.000302026
42.5583
9.74698
0.00128492
44.3798
8.56724
-0.000320073
45.377
5.46473
-0.000610183
45.2252
1.98032
-0.00234373
44.225
-0.12158
-0.00382559
42.5735
-3.594
0.0131849
41.0856
-1.81239
0.00591295
40.1517
-0.251349
0.00292231
40.511
7.50691
0.000506925
42.5326
14.3998
0.00219042
47.3403
21.4135
0.0038795
55.5155
24.4296
0.00533337
13.2458
-0.000189503
37.2781
-1.59151
-0.0172857
37.2821
-0.42325
-0.00396562
37.4079
0.972612
-0.00133094
37.7157
2.61012
-0.000663162
38.2751
4.3082
-0.000541093
39.2693
6.16423
-0.000218767
40.6247
7.27043
-1.27458e-05
42.3441
8.02752
0.000561271
43.8361
7.07592
-0.000267506
44.6813
4.61989
-0.000519705
44.6592
2.00364
-0.0011286
43.4423
1.09799
-0.00253081
42.7482
-2.90621
0.00644665
41.6957
-0.762972
0.00333899
41.0667
0.374642
0.00312828
41.6539
6.91902
0.000784642
43.6939
12.3578
0.0019392
47.8075
17.2967
0.00322044
53.8055
18.4268
0.00482762
8.97581
0.000787713
37.5231
-1.49501
-0.0181226
37.5237
-0.418915
-0.00459823
37.6582
0.83992
-0.00168736
37.9839
2.28548
-0.000805577
38.5548
3.73803
-0.000529981
39.8975
4.82195
-0.000236577
40.6944
6.47451
-0.000767894
42.1463
6.5755
0.000401655
43.4062
5.81643
-0.000154051
44.1402
3.88623
-0.0003101
44.2142
1.93036
-0.000658797
45.566
-0.254641
0.000958439
42.9089
-0.252937
0.00399582
42.1986
-0.054532
0.00203819
41.8191
0.751209
0.0030021
42.553
6.18435
0.000832075
44.5074
10.4017
0.00171459
47.9636
13.8378
0.0026937
52.4004
13.9858
0.00425591
6.28189
0.0010701
37.746
-1.38943
-0.018752
37.7405
-0.408029
-0.00510066
37.8781
0.704585
-0.00204759
38.2132
1.95145
-0.000900451
38.7786
3.17325
-0.000501347
39.6019
3.99848
0.000323701
41.012
5.06534
-0.000733891
41.9885
5.59989
-0.000615643
43.0652
4.74028
-0.000430388
43.7229
3.22886
-0.000266423
43.8747
1.77911
-0.000418792
43.5199
0.0984255
0.00179473
43.045
0.220744
0.00135246
42.6106
0.378384
0.00154846
42.4244
0.934933
0.00261241
43.2483
5.35957
0.000879531
45.0702
8.57835
0.0014929
47.9596
10.9463
0.00220343
51.3046
10.6373
0.0034461
4.50625
0.0010231
37.9475
-1.26899
-0.0192175
37.9321
-0.386791
-0.00550832
38.3146
0.324416
-0.00215644
38.6021
1.66522
-0.00112952
39.2734
2.50276
-0.000642537
39.7122
3.55997
-0.00020111
40.71
4.06811
-0.000369574
41.8362
4.47431
-0.000417702
42.8054
3.77146
-0.000247449
43.4042
2.63019
-0.000120154
43.6172
1.56641
-0.000214501
43.4197
0.295478
0.000601427
43.1632
0.47563
0.00167018
42.9428
0.59769
0.00117404
42.9032
0.972341
0.00228104
43.7778
4.48391
0.0010163
45.4564
6.89857
0.00129649
47.8852
8.5157
0.00174237
50.4649
8.05548
0.00222142
3.28009
0.00081252
38.1266
-1.12562
-0.0195779
38.0972
-0.351169
-0.00582476
38.1807
0.243313
-0.00224497
38.522
1.32523
-0.00114864
38.8781
2.14732
-0.000499781
39.8
2.63825
-0.000107362
40.7218
3.14671
-0.000262098
41.7457
3.45105
-0.000475767
42.6183
2.89907
-0.000135231
43.165
2.08362
-3.07368e-05
43.4252
1.30636
-0.000110336
43.3504
0.369705
0.000611265
43.2611
0.563793
0.00122445
43.2035
0.654347
0.000991187
42.264
1.91052
0.00146592
44.1739
2.5726
0.00140547
45.7198
5.35157
0.001156
47.7899
6.4442
0.00137793
49.832
6.01196
0.00148172
2.39892
0.000783807
38.2819
-0.9475
-0.019855
38.2337
-0.296549
-0.00606732
38.3089
0.170772
-0.00246082
38.6477
0.987723
-0.00118389
39.1848
1.61089
-0.00053669
39.8902
1.93309
-0.000151426
40.7328
2.30445
-0.000221856
41.6667
2.5175
-0.000285503
42.4487
2.11724
-6.01348e-05
42.9894
1.54295
2.64235e-05
43.286
1.00971
0.000126931
43.3028
0.352554
0.000444662
43.3397
0.525828
0.0011112
43.4043
0.588966
0.000867536
43.8187
1.49526
0.000949138
44.4617
1.92819
0.00138567
45.896
3.9163
0.000992078
47.7051
4.63396
0.00111266
49.4012
4.31487
0.00107378
1.71692
-4.55537e-05
38.4104
-0.716775
-0.0200347
38.3401
-0.219641
-0.00625194
38.4068
0.106827
-0.00258981
38.7415
0.654391
-0.00122614
39.3219
1.03114
-0.000546093
39.9495
1.30594
-0.000323707
40.7396
1.5146
-0.000198014
41.6112
1.64613
-0.000110104
42.3438
1.38478
-3.46428e-05
42.9861
0.900671
6.75951e-05
43.1888
0.806786
0.0002543
43.2712
0.269857
0.000400832
43.3979
0.398224
0.000957281
43.5487
0.437383
0.000787151
44.018
1.02515
0.000900784
44.6614
1.28371
0.00113136
46.0118
2.56499
0.000895257
47.642
3.00286
0.000933184
49.1321
2.82392
0.000816939
1.13957
-0.000125024
38.5075
-0.411809
-0.0201792
38.4137
-0.119107
-0.00638202
38.4723
0.0509971
-0.00267688
38.8022
0.325892
-0.00125279
39.3248
0.509241
-0.00058159
39.9796
0.651552
-0.000336623
40.7438
0.750742
-0.00019145
41.5762
0.813912
-9.30995e-05
42.3348
0.626204
-1.16466e-05
42.7295
0.505974
0.000108145
43.1282
0.407849
0.00028694
43.2531
0.144469
0.000518006
43.437
0.21372
0.000715194
43.6417
0.231933
0.000743321
44.146
0.52007
0.000836481
44.7873
0.641434
0.00102921
46.0825
1.26899
0.000842563
47.6058
1.47872
0.000823623
49.0067
1.42237
0.000648701
0.592937
0.00050282
38.564
-0.0202641
38.4517
-0.00645204
38.5056
-0.00271974
38.8329
-0.00125909
39.3428
-0.000586964
39.9948
-0.000307956
40.7458
-0.000162012
41.5598
-5.62417e-05
42.1861
4.52313e-05
42.692
0.000143083
43.0996
0.000298567
43.2436
0.000490205
43.4567
0.000667467
43.688
0.000733146
44.2073
0.000815959
44.8478
0.000958065
46.116
0.000820145
47.5939
0.000775563
49.0157
0.000601435
0.000307781
36.0128
-2.32966
-0.000201368
36.021
-0.414574
0.00167533
36.0652
1.47859
0.00127634
36.1637
3.60059
-1.11482e-05
36.4001
6.19627
-0.000434037
37.094
10.0419
-0.000639886
39.2236
13.8999
0.00229312
17.3444
0.00187783
36.3368
-2.26179
-0.0031736
36.3429
-0.421468
-0.000185351
36.4176
1.40415
0.000336852
36.5921
3.42609
-0.000171073
36.9694
5.8185
-0.000366251
37.9281
9.08285
-0.000508479
39.9917
11.8366
0.00114767
43.0767
14.2651
0.00108882
45.7521
12.4371
-0.00133246
47.1844
7.61308
-0.00181891
46.7086
1.6207
-0.0033708
44.9188
-1.25106
-0.00288737
42.0548
-8.36848
0.0154566
37.9115
-5.26465
0.0078209
37.7989
-1.38121
0.00183307
37.3772
7.88573
0.00229869
38.6675
18.2335
0.00597336
44.2943
31.6273
0.00972301
59.275
43.7535
0.0123452
32.3013
-0.0013264
36.6428
-2.16048
-0.00534843
36.6459
-0.425139
-0.00165452
36.7465
1.3038
-0.000454279
36.9805
3.19211
-0.000394873
37.4484
5.35045
-0.000355831
38.3464
8.18485
-4.50234e-05
40.1605
10.0225
0.000928167
42.7094
11.7184
0.000913268
44.9072
10.2395
-0.000783796
46.0916
6.42979
-0.00144373
45.7983
1.91123
-0.00202568
44.5279
0.00934465
-0.000880305
42.2934
-6.12156
0.0128688
40.2656
-3.23464
0.00565666
39.0705
-0.189243
0.00597473
39.0979
7.85563
0.00234772
40.9086
16.4201
0.00507976
46.3126
26.2204
0.00779405
57.4527
32.6103
0.00918041
20.3167
-0.000814482
36.9282
-2.0419
-0.00696282
36.9294
-0.426663
-0.0028101
37.0491
1.18433
-0.00111464
37.3273
2.9141
-0.000640175
37.8515
4.82612
-0.000410672
38.8275
7.2088
-3.01568e-05
40.3635
8.48643
0.000443314
42.4318
9.65088
0.000532977
44.2314
8.43997
-0.000483015
45.2193
5.44238
-0.00104786
45.0842
2.04501
-0.00102054
44.2298
0.859425
0.000442598
41.5662
-3.45244
0.0076729
41.0065
-2.6733
0.00431046
40.1609
0.653469
0.00579489
40.5184
7.49624
0.00236718
42.5399
14.3965
0.00435124
47.3476
21.4102
0.00641683
55.5266
24.4284
0.00813021
13.2762
0.000673914
37.1928
-1.91388
-0.00820078
37.1915
-0.425574
-0.00371982
37.3253
1.05081
-0.00166226
37.6327
2.60697
-0.000880369
38.1877
4.27105
-0.000501099
39.1827
6.21369
-0.000109811
40.509
7.16004
0.000162606
42.2395
7.92068
0.00025644
43.6951
6.98439
-0.000299502
44.5339
4.60375
-0.000699353
44.524
2.05429
-0.000550015
44.0471
1.33303
0.000770324
42.7601
-2.16425
0.00529389
41.6105
-1.52473
0.00437317
41.0736
1.18829
0.00520045
41.6602
6.90807
0.00235178
43.6994
12.3554
0.0037503
47.8135
17.2939
0.00539261
53.8148
18.4242
0.00777073
8.99303
0.00217065
37.4359
-1.77826
-0.0091381
37.4309
-0.420692
-0.00443884
37.5734
0.90866
-0.00211309
37.8982
2.28254
-0.0010999
38.4643
3.705
-0.000598092
39.5393
5.13866
-0.000210838
40.6053
6.09338
-0.000109188
42.0435
6.48275
6.90523e-05
43.2722
5.75568
-0.000163988
43.9999
3.87621
-0.000393733
44.0819
1.97154
3.66466e-05
45.6282
-0.21484
0.00258721
42.9102
0.553926
0.00374488
42.1056
-0.72099
0.00295818
41.8221
1.47033
0.00440017
42.5578
6.17099
0.00228149
44.5124
10.3993
0.00324564
47.9702
13.8343
0.00451552
52.4105
13.9813
0.00685338
6.28959
0.00242171
37.657
-1.63298
-0.00987247
37.646
-0.409748
-0.00500684
37.7915
0.763574
-0.00248211
38.1252
1.94917
-0.00129136
38.6845
3.1459
-0.000679917
39.5626
4.26117
-0.000241007
40.6285
5.02688
-0.000160544
41.8721
5.23861
-0.000107339
42.9313
4.69617
-0.000135627
43.5866
3.22092
-0.000183646
43.7451
1.81223
0.000333552
43.404
0.126493
0.00162346
43.0435
0.913515
0.00227085
42.51
-0.188426
0.00242604
42.4126
1.56657
0.00379649
43.2495
5.33281
0.00214274
45.0743
8.57314
0.002801
47.9636
10.9435
0.00368351
51.3135
10.6297
0.00515146
4.5053
0.00160776
37.8574
-1.47273
-0.0104393
37.8354
-0.387831
-0.00545326
37.9802
0.619413
-0.00276848
38.315
1.61471
-0.00145955
38.8462
2.61478
-0.000766734
39.6609
3.44667
-0.0003747
40.6465
4.0411
-0.00020282
41.7253
4.15955
-0.000137012
42.6771
3.74419
-7.38673e-05
43.2707
2.62727
-2.39482e-05
43.4898
1.59243
0.000455957
43.3007
0.315096
0.00110924
43.1597
1.0541
0.00210003
42.8343
0.136071
0.00201765
42.8349
1.56505
0.00325665
43.7757
4.39101
0.00196632
45.4593
6.88844
0.00241114
47.8886
8.51301
0.00294122
50.466
8.05109
0.00341295
3.28008
0.000701695
38.0353
-1.28916
-0.0108784
37.9991
-0.351641
-0.00580063
38.1384
0.480791
-0.00299512
38.4683
1.28529
-0.00158895
38.9105
2.17289
-0.000826498
39.7419
2.61557
-0.000434231
40.6606
3.12242
-0.000226682
41.6198
3.19997
-0.0001245
42.4725
2.89144
-1.92964e-05
43.0331
2.06646
8.91902e-05
43.2989
1.32605
0.000507139
43.2303
0.383318
0.00101375
43.2576
1.0263
0.00171411
43.1047
0.288223
0.0017645
42.757
1.91173
0.00241025
44.1763
2.97079
0.00233246
45.7217
5.34207
0.00212896
47.7921
6.44169
0.00236025
49.8323
6.00994
0.00235593
2.40082
0.000680392
38.1894
-1.07014
-0.0112184
38.1347
-0.296925
-0.00606535
38.2668
0.349414
-0.00317919
38.5944
0.958148
-0.00169031
39.1315
1.63615
-0.000882637
39.8369
1.91054
-0.000468853
40.6728
2.28647
-0.000241165
41.5431
2.32958
-0.000109003
42.3235
2.11089
1.69062e-05
42.859
1.53085
0.000162221
43.1609
1.02379
0.000524021
43.1821
0.361529
0.00094252
43.3355
0.872641
0.00146141
43.3095
0.31346
0.0015818
43.7218
1.49862
0.00179442
44.466
2.22571
0.00224769
45.8978
3.90936
0.00184683
47.7063
4.63238
0.00193342
49.4023
4.31333
0.00172586
1.71648
0.000663982
38.3172
-0.798921
-0.0114308
38.24
-0.21971
-0.00625996
38.3637
0.226448
-0.00331553
38.6882
0.634206
-0.00176795
39.2831
1.04161
-0.000926036
39.8977
1.29619
-0.000511134
40.6801
1.50406
-0.000255834
41.4886
1.52115
-9.80639e-05
42.2186
1.38076
4.18325e-05
42.7372
1.01218
0.000208846
43.0644
0.696311
0.00052137
43.1505
0.274863
0.000885717
43.3931
0.629736
0.00129725
43.4524
0.253525
0.00147516
43.9238
1.02628
0.00178279
44.6654
1.48322
0.00202599
46.0132
2.56077
0.00166943
47.6431
3.00183
0.00164143
49.133
2.8229
0.00132762
1.13652
0.000825623
38.4135
-0.453009
-0.0115914
38.3128
-0.118964
-0.00638682
38.4291
0.110904
-0.00340529
38.7478
0.315985
-0.00181758
39.2775
0.51234
-0.000954283
39.9258
0.648014
-0.000516232
40.6837
0.746308
-0.000260061
41.4537
0.751087
-8.99026e-05
42.1522
0.682178
5.97522e-05
42.6605
0.503798
0.000237191
43.0041
0.352429
0.000517945
43.1314
0.147264
0.00084951
43.4314
0.32927
0.00119538
43.5449
0.139295
0.00140536
44.05
0.520351
0.00167252
44.7905
0.741993
0.00184373
46.0833
1.26724
0.00156161
47.6064
1.47805
0.00146408
49.0067
1.4221
0.00111385
0.591721
0.000280113
38.4696
-0.0116719
38.3506
-0.0064498
38.4622
-0.00344991
38.7788
-0.00184156
39.2915
-0.000972036
39.9398
-0.000520049
40.6862
-0.000258362
41.4373
-8.2696e-05
42.1194
7.25212e-05
42.6231
0.000252244
42.9753
0.000515494
43.1223
0.000825302
43.4511
0.00114408
43.5897
0.00137196
44.1093
0.00157742
44.8505
0.0017059
46.1171
0.00151082
47.5945
0.00138149
49.0162
0.00101959
-0.000270594
36.0128
-2.37424
0.00174578
36.0193
-0.424534
0.00158383
36.0648
1.48644
0.00105735
36.1658
3.59586
0.000320086
36.406
6.20194
1.9484e-05
37.0779
9.7311
0.00017857
39.2318
14.0648
0.000882949
17.506
0.000801629
36.3383
-2.29936
5.23544e-06
36.3428
-0.429547
0.000365266
36.4183
1.41084
0.000371398
36.5942
3.41979
6.03896e-05
36.9735
5.8223
-4.90914e-05
37.7291
8.97484
0.000145511
39.8321
11.9623
0.000638282
43.0869
14.2517
0.000544247
45.7535
12.41
-0.000302949
47.1676
7.60273
-0.000792993
46.6558
1.24106
-0.00104712
44.8641
-1.52923
0.000270532
41.9346
-8.83564
0.00614843
39.254
-5.19251
0.00576387
37.8123
-0.233406
0.00425964
37.3896
7.8708
0.00516982
38.6788
18.2255
0.00749806
44.3037
31.618
0.0105638
59.2816
43.7447
0.0125082
32.384
0.00248521
36.6454
-2.19252
-0.00141706
36.6467
-0.43185
-0.000680939
36.7475
1.30981
-0.000251634
36.9822
3.18489
-0.000215715
37.4516
5.35271
-0.00016556
38.3397
8.08665
5.0011e-05
40.1707
10.1318
0.000405286
42.7107
11.7123
0.000396165
44.9053
10.2147
-0.000195418
46.0827
6.42448
-0.00053986
45.7523
1.56988
-0.00049661
44.4706
-0.249191
0.000838656
42.2147
-6.57225
0.00530909
40.18
-3.15727
0.00509707
39.082
0.866344
0.00427005
39.1097
7.84072
0.00471854
40.9196
16.4143
0.00645641
46.3227
26.214
0.00863096
57.4566
32.6106
0.0094388
20.3763
0.00118381
36.9312
-2.06968
-0.00257799
36.9302
-0.432134
-0.00156155
37.0505
1.18921
-0.000802632
37.3282
2.90709
-0.00048689
37.8538
4.82696
-0.000285664
38.8236
7.11681
-3.44289e-05
40.3666
8.58903
0.000237984
42.4334
9.64576
0.00027064
44.2295
8.41822
-0.000107049
45.214
5.4393
-0.000310421
45.044
1.7389
-7.34136e-05
44.178
0.616006
0.00122342
40.5756
-2.96664
0.0045005
40.9277
-3.50953
0.00445031
40.1723
1.6235
0.00409175
40.5286
7.48248
0.0042896
42.5498
14.3919
0.0055503
47.3577
21.4054
0.00711801
55.5395
24.4293
0.00763741
13.3184
0.000801033
37.1955
-1.93769
-0.00352694
37.1924
-0.43047
-0.0022944
37.3258
1.0554
-0.00128061
37.6328
2.59998
-0.000743133
38.1881
4.27155
-0.000413717
39.1769
6.12802
-0.000126375
40.5095
7.25652
0.000100589
42.243
7.91235
0.00015646
43.6926
6.96838
-4.33119e-05
44.5294
4.60186
-0.000118569
44.4818
1.78579
0.000223074
44.9428
0.154367
0.00138607
42.7669
-0.789158
0.00369725
41.5208
-2.26283
0.00379045
41.0835
2.06218
0.00380514
41.6688
6.8957
0.00388245
43.708
12.3516
0.00477623
47.8237
17.2891
0.00594317
53.8338
18.4202
0.00681875
9.01827
0.00139686
37.4384
-1.79884
-0.00432
37.4307
-0.424318
-0.00289732
37.5732
0.912535
-0.00168851
37.897
2.27599
-0.000976871
38.4634
3.70515
-0.000542529
39.4379
5.15352
-0.00022604
40.608
6.08625
-1.8325e-05
42.0601
6.46031
6.48326e-05
43.2695
5.75876
2.9263e-06
43.9959
3.87509
3.41524e-05
44.044
1.73724
0.000440798
44.3991
-0.199608
0.00148215
42.9022
0.708418
0.00303521
42.0076
-1.36862
0.00336951
41.8264
2.24439
0.00346256
42.5643
6.15654
0.00349271
44.5197
10.3953
0.00411135
47.9788
13.8296
0.00493742
52.4293
13.9709
0.0056898
6.29992
0.00236662
37.6587
-1.65037
-0.0049264
37.6453
-0.412597
-0.00339024
37.7907
0.76673
-0.00203117
38.1232
1.94338
-0.00118255
38.6826
3.14577
-0.00065995
39.5651
4.27104
-0.00030656
40.6282
5.02314
-9.1859e-05
41.8669
5.22146
1.8252e-05
42.9275
4.69797
5.30322e-05
43.5823
3.21992
0.000152825
43.7073
1.61204
0.0005702
43.3704
0.13752
0.00140019
43.0327
1.04587
0.00246974
42.4019
-0.738288
0.00289397
42.4003
2.24667
0.00310251
43.2531
5.30282
0.00312397
45.0804
8.5672
0.00354068
47.9704
10.9393
0.00405102
51.3236
10.6187
0.00415771
4.50719
0.00138139
37.8585
-1.48713
-0.00543715
37.8346
-0.390363
-0.00378688
37.9785
0.622349
-0.00231274
38.3123
1.60948
-0.00135788
38.8421
2.61604
-0.000761921
39.6591
3.45399
-0.000381643
40.6434
4.03876
-0.00015199
41.7181
4.14665
-1.5579e-05
42.6725
3.74348
8.13825e-05
43.266
2.62616
0.000235034
43.4515
1.42629
0.00063804
43.2654
0.3234
0.00130558
43.1466
1.16471
0.00209673
42.7169
-0.309042
0.00251351
42.7618
2.20221
0.0027681
43.7748
4.28899
0.00279055
45.4634
6.87793
0.0030599
47.8936
8.50876
0.00331661
50.4682
8.04446
0.00308451
3.28023
0.000412095
38.0361
-1.30074
-0.00583129
37.9977
-0.353643
-0.00410074
38.1365
0.483072
-0.0025395
38.4644
1.28149
-0.00150169
38.9491
2.13135
-0.000845977
39.7388
2.6643
-0.000444119
40.6576
3.11996
-0.000195433
41.6138
3.19037
-3.35943e-05
42.467
2.89012
0.000102909
43.0275
2.06552
0.000291221
43.2602
1.19336
0.000667639
43.194
0.38947
0.00121482
43.2441
1.11446
0.00183603
42.9983
-0.0637079
0.00222166
43.2903
1.91013
0.00249046
44.1797
3.39933
0.00258029
45.7252
5.33191
0.00268401
47.7953
6.43827
0.00274519
49.8336
6.00621
0.00233813
2.40087
0.000149261
38.1896
-1.07836
-0.00612748
38.1327
-0.298474
-0.00434046
38.2642
0.351067
-0.00271641
38.5904
0.955222
-0.0016175
39.1154
1.60647
-0.00092195
39.8338
1.94586
-0.000499127
40.6693
2.28446
-0.000227174
41.5372
2.32246
-4.2633e-05
42.3175
2.10968
0.000119773
42.8524
1.53051
0.000327802
43.1212
0.924317
0.000676482
43.1447
0.365778
0.00113989
43.3208
0.938223
0.00164624
43.2074
0.0492859
0.00199477
43.6174
1.49972
0.00223999
44.4711
2.54543
0.0023826
45.9009
3.90155
0.00238308
47.7081
4.63069
0.00231715
49.4037
4.31055
0.00182676
1.71761
0.000469101
38.3175
-0.804743
-0.00633898
38.2374
-0.220181
-0.00451316
38.3609
0.227134
-0.00284644
38.6836
0.632498
-0.00170319
39.244
1.04611
-0.00097696
39.8949
1.29497
-0.000534494
40.6761
1.5032
-0.000247747
41.4824
1.51616
-4.72886e-05
42.212
1.37995
0.000132436
42.7302
1.01218
0.000350836
43.0244
0.629942
0.00067556
43.1126
0.277361
0.00108331
43.3772
0.673431
0.00151478
43.3494
0.0767268
0.00183647
43.8225
1.02633
0.0020699
44.6701
1.69769
0.00221025
46.0152
2.55592
0.00216117
47.6447
3.0008
0.00201487
49.1335
2.82163
0.0014921
1.14019
0.000614288
38.4131
-0.455917
-0.0064626
38.3105
-0.119357
-0.00462602
38.4256
0.111574
-0.00293194
38.7432
0.314811
-0.00175978
39.2753
0.514123
-0.00101278
39.9224
0.647907
-0.000555148
40.6797
0.745883
-0.000259894
41.4472
0.748594
-4.91441e-05
42.1449
0.682135
0.000140591
42.6532
0.503803
0.000363853
42.9639
0.319095
0.000671272
43.0926
0.148482
0.00104403
43.415
0.350741
0.00143114
43.441
0.0504508
0.00173488
43.9467
0.520347
0.00195871
44.7938
0.850297
0.00208576
46.0848
1.26451
0.00201628
47.6076
1.47756
0.00182616
49.0071
1.42194
0.00133907
0.595344
-0.000228931
38.4691
-0.00653451
38.348
-0.00468137
38.4591
-0.00297455
38.7739
-0.00178831
39.288
-0.00103161
39.936
-0.000565875
40.6819
-0.00026604
41.4305
-4.97609e-05
42.1125
0.000144752
42.6162
0.000369914
42.9351
0.000668428
43.0834
0.00102453
43.4339
0.00139133
43.4841
0.00168752
44.0041
0.00190391
44.8541
0.00201868
46.1181
0.00194503
47.5954
0.00173219
49.0171
0.00120516
0.000582892
36.0154
-2.38462
0.00144746
36.0214
-0.42885
0.00114111
36.0675
1.48627
0.000786995
36.1705
3.59896
0.000399055
36.4114
6.20636
0.000215821
37.0836
9.73391
0.000264703
39.236
14.0655
0.00044347
17.5033
0.000514969
36.3426
-2.30774
0.000570388
36.3471
-0.433367
0.00044251
36.4232
1.41019
0.000340314
36.6001
3.42191
0.000164547
36.9811
5.82525
0.000103586
37.7358
8.97913
0.000210566
39.8398
11.9618
0.000366834
43.0923
14.2509
0.00039144
45.7546
12.4072
0.00015775
47.1641
7.6
1.5794e-05
46.6549
1.24002
0.000223458
44.8716
-1.51575
0.00125184
41.9419
-8.79594
0.00341837
39.2532
-5.20076
0.00427273
37.8181
-0.271433
0.00452982
37.3971
7.86509
0.00555992
38.6863
18.2183
0.00734743
44.3078
31.6103
0.00987264
59.282
43.7374
0.013277
32.4413
0.00653728
36.6507
-2.19939
-0.000239487
36.6524
-0.435544
-0.000200426
36.7532
1.3093
-8.66116e-05
36.9889
3.18607
-7.54911e-05
37.4588
5.35518
-3.47047e-05
38.3485
8.08941
9.34743e-05
40.1789
10.1315
0.00024611
42.7174
11.7125
0.000309657
44.9101
10.2141
0.000164589
46.0852
6.42429
0.000112112
45.7564
1.56795
0.000395104
44.4795
-0.239468
0.00135732
42.233
-6.54724
0.0031168
40.1877
-3.15427
0.00394422
39.0891
0.827211
0.00419137
39.1182
7.83568
0.00503138
40.9278
16.4088
0.0064522
46.33
26.2083
0.00833046
57.4604
32.6061
0.0102863
20.4172
0.00414442
36.9373
-2.07534
-0.000966925
36.9361
-0.435203
-0.000775415
37.0569
1.18821
-0.000481252
37.3348
2.90799
-0.000308575
37.8616
4.8283
-0.000166342
38.8317
7.11927
-2.19631e-06
40.3747
8.58857
0.000158932
42.4404
9.64685
0.00023952
44.2359
8.4183
0.000172539
45.2198
5.43988
0.000198615
45.0504
1.73678
0.000535397
44.1886
0.622057
0.00145228
40.6064
-2.9634
0.00289514
40.9415
-3.48847
0.00356377
40.1795
1.58939
0.00386881
40.5372
7.47772
0.0045414
42.558
14.3879
0.0056226
47.3663
21.4003
0.00690101
55.5447
24.4278
0.0075456
13.3475
0.00230961
37.2012
-1.94266
-0.00160393
37.1983
-0.433344
-0.00127916
37.3316
1.0545
-0.000837834
37.6393
2.60002
-0.000528554
38.1948
4.27276
-0.000296572
39.1844
6.12962
-9.17037e-05
40.5159
7.25709
7.90793e-05
42.2502
7.91254
0.00017192
43.6992
6.96905
0.000177945
44.5359
4.60285
0.000272279
44.4888
1.78337
0.000641174
44.9635
0.147366
0.00146719
42.7776
-0.776448
0.00264839
41.5318
-2.24206
0.00317847
41.0908
2.03063
0.00353878
41.6767
6.89166
0.00407364
43.7166
12.3479
0.00487029
47.8331
17.2841
0.00568925
53.8471
18.4149
0.00571328
9.03403
0.00147329
37.4437
-1.80245
-0.00214727
37.436
-0.426815
-0.00171326
37.5783
0.911712
-0.00115248
37.9025
2.27551
-0.000730438
38.4692
3.706
-0.000422318
39.4443
5.1544
-0.000182459
40.6147
6.08668
2.42917e-06
42.0668
6.46036
0.000113424
43.2757
5.76005
0.000180146
44.0025
3.87572
0.000329012
44.0505
1.73511
0.000707677
44.3971
-0.199194
0.00140997
42.9098
0.711531
0.00238878
42.0175
-1.34936
0.0029313
41.8317
2.21674
0.00322926
42.5713
6.15186
0.00365064
44.5266
10.3925
0.00420681
47.9858
13.8251
0.00468624
52.4399
13.9621
0.00438793
6.30891
0.00131793
37.6639
-1.65367
-0.00259699
37.6499
-0.414169
-0.00208043
37.7954
0.765635
-0.00142445
38.1276
1.94304
-0.000910079
38.6875
3.14597
-0.000536199
39.5703
4.2715
-0.000257812
40.6335
5.02348
-5.26795e-05
41.872
5.22177
8.7935e-05
42.9332
4.69872
0.000199053
43.5881
3.22063
0.000375829
43.7127
1.61028
0.000748782
43.3764
0.137119
0.00135567
43.0391
1.04922
0.00212633
42.4098
-0.719818
0.00263844
42.4014
2.22531
0.00293022
43.2581
5.29503
0.00325799
45.0865
8.56406
0.00364014
47.9766
10.9351
0.00387735
51.3266
10.6129
0.00339859
4.51574
0.000940841
37.8629
-1.48968
-0.00296483
37.8393
-0.392046
-0.00238667
37.9827
0.621585
-0.00165446
38.3162
1.60929
-0.00106483
38.8457
2.61628
-0.000633989
39.663
3.45413
-0.00032404
40.6477
4.03874
-0.00010347
41.7219
4.1475
5.95846e-05
42.6767
3.74384
0.000203882
43.2705
2.62667
0.000406363
43.4559
1.42469
0.000766672
43.2703
0.322785
0.00130149
43.1516
1.16807
0.00191496
42.7218
-0.289865
0.00238569
42.756
2.19122
0.00266565
43.7779
4.27299
0.00291314
45.4674
6.87439
0.00317156
47.8973
8.50528
0.00323123
50.4708
8.03986
0.00268458
3.28594
0.00042877
38.0399
-1.30266
-0.00328399
38.0013
-0.354857
-0.00263542
38.1402
0.481972
-0.00184298
38.4677
1.28146
-0.00119364
38.9522
2.13163
-0.000715647
39.7421
2.66414
-0.000381924
40.6605
3.12027
-0.000144281
41.6175
3.19047
3.76097e-05
42.4709
2.89038
0.000205928
43.0312
2.0662
0.000425845
43.2641
1.19163
0.000769645
43.1975
0.389357
0.00123819
43.2484
1.11725
0.00175636
43.0063
-0.0476838
0.0021755
43.2913
1.9063
0.00245195
44.1832
3.381
0.00264851
45.7291
5.32842
0.00279063
47.7987
6.43564
0.00272715
49.8357
6.00307
0.00214265
2.40309
0.000675692
38.1931
-1.07973
-0.00350376
38.136
-0.299261
-0.0028301
38.267
0.350255
-0.00199195
38.5931
0.955038
-0.00129835
39.1178
1.60683
-0.000788778
39.8365
1.94538
-0.000434599
40.672
2.28476
-0.000176596
41.5398
2.32253
2.22294e-05
42.3203
2.10985
0.000208221
42.8553
1.53108
0.000437938
43.1239
0.922888
0.000764596
43.1475
0.365793
0.00118223
43.3244
0.940308
0.00163143
43.215
0.0616971
0.00200751
43.6241
1.49721
0.00226693
44.4743
2.53074
0.00243186
45.9032
3.89942
0.00249447
47.7102
4.62856
0.00235164
49.4048
4.3086
0.00175418
1.71865
0.00087831
38.3204
-0.805386
-0.0036831
38.2405
-0.220909
-0.0029715
38.3634
0.226598
-0.00210236
38.6856
0.632485
-0.0013763
39.2464
1.04592
-0.000841936
39.8969
1.29488
-0.000469006
40.6781
1.50351
-0.000198441
41.4843
1.51621
1.19571e-05
42.2144
1.3797
0.000209944
42.7327
1.01265
0.000444575
43.0267
0.628869
0.000756646
43.1149
0.277471
0.00113801
43.3801
0.675096
0.00153963
43.3571
0.0846378
0.00188146
43.8295
1.02479
0.00212272
44.6723
1.68787
0.00226509
46.017
2.55463
0.00227801
47.6458
2.9997
0.00208445
49.1336
2.82075
0.00152275
1.14197
0.000167127
38.4164
-0.456383
-0.00380168
38.3136
-0.119715
-0.00306399
38.4281
0.111308
-0.00217553
38.7456
0.314641
-0.00142818
39.2771
0.514353
-0.000876834
39.924
0.64786
-0.0004909
40.6816
0.745874
-0.000212676
41.4488
0.748965
5.45595e-06
42.1466
0.681836
0.000210867
42.655
0.504218
0.000447974
42.9654
0.318368
0.000749262
43.0944
0.148362
0.0011068
43.4179
0.351587
0.00147877
43.4479
0.0545851
0.00179832
43.9529
0.519718
0.0020274
44.7953
0.845401
0.00215411
46.0865
1.26329
0.00213612
47.6087
1.4774
0.00191158
49.0087
1.42073
0.00134658
0.593484
0.00027066
38.4721
-0.00383456
38.3508
-0.00311113
38.4614
-0.00221206
38.7757
-0.00145446
39.2899
-0.000895092
39.9377
-0.000502249
40.6835
-0.000219764
41.4324
2.32748e-06
42.1142
0.000211183
42.6183
0.000449119
42.9366
0.00074484
43.0849
0.0010912
43.4364
0.00144892
43.491
0.00175588
44.0106
0.00197999
44.8559
0.00209965
46.1191
0.00206643
47.5964
0.00182743
49.0171
0.00126741
0.00034648
36.0159
-2.38965
0.000927507
36.022
-0.431103
0.000726462
36.0683
1.48636
0.000534381
36.172
3.60027
0.000339893
36.4125
6.20812
0.000235148
37.0835
9.73399
0.000232113
39.233
14.0631
0.000286967
17.4999
0.000386652
36.3452
-2.31252
0.000485228
36.3498
-0.43556
0.000336856
36.4264
1.40982
0.00025836
36.6034
3.42323
0.000167664
36.9849
5.82666
0.000136299
37.7389
8.98
0.000187186
39.8408
11.9613
0.000255123
43.0916
14.2491
0.000330887
45.7509
12.4048
0.000347214
47.1592
7.598
0.000413479
46.6508
1.24104
0.00073954
44.871
-1.51301
0.00144168
41.9423
-8.79185
0.00255038
39.2541
-5.20242
0.00334503
37.8206
-0.275043
0.00397762
37.4006
7.86154
0.00491867
38.6888
18.2135
0.00621629
44.3121
31.6033
0.00799545
59.2962
43.7279
0.0110486
32.4693
0.00611641
36.6542
-2.2038
6.15573e-05
36.6564
-0.437922
-3.82072e-05
36.7573
1.30881
-1.48723e-05
36.9937
3.1868
-9.37916e-06
37.4638
5.35651
2.09958e-05
38.3537
8.09006
9.79215e-05
40.1831
10.132
0.000186371
42.7203
11.712
0.000286929
44.9115
10.2134
0.000330129
46.0858
6.4234
0.000434085
45.7579
1.56855
0.000763032
44.4824
-0.237581
0.00141725
42.2371
-6.5458
0.00235248
40.1913
-3.1558
0.0031396
39.0945
0.822294
0.00368433
39.1234
7.83312
0.00449996
40.9338
16.4041
0.00558063
46.3363
26.202
0.00705382
57.4686
32.5962
0.0097069
20.4336
0.00481045
36.9415
-2.07932
-0.000375736
36.9406
-0.437444
-0.0003898
37.0616
1.18764
-0.000276298
37.3398
2.90844
-0.000182736
37.8671
4.82921
-8.85155e-05
38.837
7.12007
2.12545e-05
40.38
8.58908
0.000133965
42.4446
9.64727
0.000243984
44.2398
8.41813
0.000314983
45.223
5.43999
0.000451895
45.054
1.73727
0.000789101
44.1941
0.622384
0.00142109
40.6135
-2.9646
0.00222157
40.9471
-3.48872
0.00288822
40.1851
1.58474
0.00340031
40.5435
7.47523
0.00407735
42.5647
14.3835
0.00494491
47.3721
21.3954
0.00602095
55.5484
24.42
0.00752601
13.3599
0.00336737
37.2053
-1.94602
-0.000795746
37.2024
-0.435147
-0.000712186
37.3362
1.05355
-0.000519909
37.6442
2.60022
-0.000348351
38.2001
4.27329
-0.000195667
39.1895
6.1306
-5.10044e-05
40.5209
7.25767
8.22474e-05
42.2554
7.91269
0.000198536
43.7041
6.96938
0.000299572
44.5407
4.60315
0.000465874
44.4944
1.7834
0.000804226
44.9696
0.14728
0.00138633
42.7831
-0.77753
0.00210822
41.5373
-2.24245
0.00264382
41.0962
2.02636
0.00311656
41.6828
6.88898
0.0036838
43.723
12.3438
0.00434365
47.8397
17.2795
0.00500999
53.8512
18.4088
0.00533098
9.04193
0.0024586
37.4473
-1.80521
-0.00112014
37.4403
-0.428829
-0.0010011
37.5824
0.911008
-0.000740985
37.9072
2.27517
-0.000502166
38.4739
3.7065
-0.000299065
39.4495
5.15495
-0.00012471
40.62
6.08712
2.75932e-05
42.0717
6.46101
0.000155205
43.2808
5.76016
0.000283199
44.0079
3.87585
0.000473962
44.0555