/*--------------------------------*- C++ -*----------------------------------*\
  =========                 |
  \\      /  F ield         | OpenFOAM: The Open Source CFD Toolbox
   \\    /   O peration     | Website:  https://openfoam.org
    \\  /    A nd           | Version:  10
     \\/     M anipulation  |
\*---------------------------------------------------------------------------*/
FoamFile
{
    format      ascii;
    class       volScalarField;
    location    "0";
    object      thickness;
}
// * * * * * * * * * * * * * * * * * * * * * * * * * * * * * * * * * * * * * //

dimensions      [0 0 0 0 0 0 0];

internalField   uniform 0;

boundaryField
{
    front
    {
        type            cyclic;
    }
    Back
    {
        type            cyclic;
    }
    inlet
    {
        type            fixedValue;
        value           uniform 0;
    }
    outlet
    {
        type            fixedValue;
        value           uniform 0;
    }
    upperPatch
    {
        type            fixedValue;
        value           uniform 0;
    }
    ground
    {
        type            fixedValue;
        value           nonuniform List<scalar> 
7462
(
0
0
0
0
0
0
0
0
0
0
0
0
0
0
0
0
0
0
0
0
0
0
0
0
0.493168
1.06074
1.06243
0.353686
0.501913
1.03916
1.03714
1.06227
1.06243
0.883706
1.04024
1.06242
1.06242
1.06243
1.06243
1.03373
1.06242
1.06243
1.06243
1.06243
1.06243
1.03415
1.06243
1.06243
1.06243
1.06243
1.06243
1.03415
1.06243
1.06243
1.06243
1.06243
1.06243
1.03415
1.06243
1.06243
1.06243
1.06243
1.06243
1.03415
1.06243
1.06243
1.06243
1.06243
1.06243
1.03415
1.06243
1.06243
1.06243
1.06243
1.06243
1.03415
1.06243
1.06243
1.06243
1.06243
1.06243
1.03415
1.06243
1.06243
1.06243
1.06243
1.06243
1.03415
1.06243
1.06243
1.06243
1.06243
1.06243
1.03415
1.06243
1.06243
1.06243
1.06243
1.06243
1.03415
1.06243
1.06243
1.06243
1.06243
1.06243
1.03415
1.06243
1.06243
1.06243
1.06243
1.06243
1.03415
1.06243
1.06243
1.06243
1.06243
1.06243
1.03415
1.06243
1.06243
1.06243
1.06243
1.06243
1.03415
1.06243
1.06243
1.06243
1.06243
1.06243
1.03415
1.06243
1.06234
1.06238
1.06243
1.06243
1.03137
1.06238
0.982872
1.01051
1.06189
1.06243
0.693946
1.00214
0.976457
0.794598
0.668691
0.521629
0.867655
1.03327
0.985175
0.982053
0.981214
0.522279
0.981345
0.987846
0.528854
0.531193
0.991158
0.531118
0.516903
0.472183
0.619653
0.606411
0.092158
0.103699
0.59958
0.493097
0.622851
0.621745
0.611523
0.520996
0.36313
0.277214
0.537258
0.667426
0.522411
0.494101
0.56534
0.200162
0.379495
0.373334
0.367763
0.329708
0.304683
0.616374
0.260085
0.632155
0.614946
0.637098
0.638545
0.63851
0.638549
0.638549
0.638549
0.638549
0.638549
0.638549
0.638549
0.638549
0.638549
0.638549
0.638549
0.638549
0.638549
0.638549
0.638549
0.638549
0.638549
0.638549
0.638549
0.638549
0.638549
0.638549
0.638549
0.638549
0.638549
0.638549
0.638549
0.638549
0.638549
0.638549
0.638549
0.638549
0.638549
0.638549
0.638549
0.638549
0.638549
0.638549
0.638549
0.638549
0.638549
0.638549
0.638549
0.638549
0.638549
0.638549
0.638549
0.638549
0.638549
0.638549
0.638545
0.637098
0.638282
0.632155
0.260099
0.546827
0.304681
0.46785
0.521366
0.518183
0.490833
1.05386
1.03813
0.907833
0.537442
1.03669
1.03481
0.530498
0.5269
1.03096
0.998421
0.525162
0.522157
0.994459
0.528809
0.531193
0.531118
0.484102
0.138028
0.339622
0.146566
0.319924
0.528843
0.443082
0.365482
0.299732
0.102007
0.530693
0.373765
0.233986
0.461307
0.531213
0.531213
0.531213
0.531213
0.531213
0.531213
0.531213
0.531213
0.531213
0.531213
0.531213
0.531213
0.531213
0.531213
0.531213
0.531213
0.531213
0.531213
0.531213
0.531213
0.531213
0.531213
0.531213
0.531213
0.531213
0.531213
0.531213
0.531213
0.531213
0.531213
0.531213
0.531213
0.531213
0.531213
0.531213
0.531213
0.531213
0.531213
0.531213
0.531213
0.531213
0.531213
0.531213
0.531213
0.531213
0.531213
0.531213
0.531213
0.531213
0.531213
0.531213
0.531213
0.531213
0.531213
0.531213
0.531213
0.531213
0.531213
0.531213
0.531213
0.531213
0.531213
0.531213
0.531213
0.531213
0.531213
0.531213
0.531213
0.531213
0.531213
0.531213
0.531213
0.531213
0.531213
0.531213
0.531213
0.531213
0.531213
0.531213
0.531213
0.531213
0.531213
0.531213
0.531213
0.373765
0.233987
0.461307
0.299733
0.102007
0.275068
0.443082
0.365482
0.385512
0.635236
0.910743
0.623985
0.621289
0.620619
0.620829
0.631835
0.531186
0.639362
0.531209
0.526119
0.328719
0.183741
0.409183
0.311065
0.528848
0.526944
0.530076
0.346336
0.46109
0.523415
0.517818
0.53091
0.530392
0.531069
0.527735
0.528067
0.225885
0.519031
0.598323
0.599293
0.599477
0.599477
0.599477
0.599477
0.599477
0.599477
0.599477
0.599477
0.599477
0.599477
0.599477
0.599477
0.599477
0.599477
0.599477
0.599477
0.599477
0.599477
0.599477
0.599477
0.599477
0.599477
0.599477
0.599477
0.599477
0.599477
0.599477
0.599477
0.599477
0.599477
0.599293
0.598323
0.519031
0.493399
0.762692
0.685984
0.493741
0.30012
0.574812
0.282326
0.305224
0.296716
0.0545748
0.342287
0.294272
0.318216
0.600722
0.524339
0.608327
0.346336
0.522453
0.624191
0.522096
0.646244
0.637031
0.52377
0.722978
0.516737
0.521637
0.368607
0.409999
0.141449
0.521527
0.529539
0.530337
0.530246
0.301879
0.130059
0.284991
0.0931062
0.273075
0.0867174
0.269526
0.529356
0.526498
0.52429
0.530558
0.530794
0.531146
0.531213
0.531213
0.531213
0.531213
0.531213
0.531213
0.531213
0.531213
0.531213
0.531213
0.531213
0.531213
0.531213
0.531213
0.531213
0.531213
0.531213
0.531213
0.531213
0.531213
0.531213
0.531213
0.531213
0.531213
0.531213
0.531213
0.531213
0.531213
0.531213
0.531213
0.531213
0.531213
0.531213
0.531213
0.531213
0.531213
0.531213
0.531213
0.531213
0.531213
0.531213
0.531213
0.531213
0.531213
0.531213
0.531213
0.531213
0.531213
0.531213
0.531213
0.531213
0.531213
0.531213
0.531213
0.531213
0.531213
0.531213
0.531213
0.531213
0.531213
0.531213
0.531213
0.531213
0.531213
0.531213
0.531213
0.531213
0.531213
0.531213
0.531213
0.531213
0.531213
0.530558
0.530794
0.526498
0.52429
0.273075
0.0867177
0.284991
0.0931065
0.317787
0.301879
0.130057
0.353701
0.523657
0.528014
0.530558
0.530276
0.53121
0.53085
0.758856
0.982842
0.58396
0.832987
0.528417
0.824287
0.527017
0.817055
0.509145
0.805409
0.492181
0.641236
0.531186
0.641996
0.531209
0.526365
0.518333
0.499398
0.522501
0.47051
0.531065
0.531201
0.531212
0.531212
0.530051
0.529834
0.509118
0.497257
0.693945
1.05416
1.04048
1.06214
1.06233
0.984919
1.01432
0.292833
0.265473
0.278944
1.04917
1.06054
1.06216
1.06241
1.06216
1.06242
1.06193
1.0623
1.06216
1.06242
1.06216
1.06242
1.06234
1.06216
1.06216
1.06235
1.06243
1.06243
1.06243
1.06243
1.06243
1.06243
0.292831
1.03946
1.03919
1.06233
1.06233
1.03923
1.04121
1.06233
1.06234
1.04216
1.06235
0.917174
1.061
1.06243
1.06243
1.06243
1.06243
1.06243
1.06243
1.06224
1.06242
1.06242
1.06242
1.06243
1.06242
1.06242
1.06243
1.06243
1.06242
1.06243
1.06225
1.06243
1.06243
1.06243
1.06243
1.06243
1.06243
1.06243
1.06243
1.06242
1.06243
1.06242
1.06243
1.06243
1.06243
1.06243
1.06243
1.06243
1.06243
1.06243
1.06243
1.06243
1.06243
1.06243
1.06243
1.06243
1.06243
0.884232
1.06216
1.06242
1.06216
1.06242
1.06242
1.06243
1.06242
1.06243
1.06243
1.06243
1.06243
1.06243
1.06243
1.06243
1.06243
1.06243
1.06243
1.06243
1.06243
1.06243
1.06243
1.06243
0.884233
0.884233
1.06216
1.06242
1.06216
1.06242
1.06242
1.06243
1.06242
1.06243
1.06243
1.06243
1.06243
1.06243
1.06243
1.06243
1.06243
1.06243
1.06243
1.06243
1.06243
1.06243
1.06243
1.06243
1.06243
0.884233
1.06216
1.06242
1.06216
1.06242
1.06242
1.06243
1.06242
1.06243
1.06243
1.06243
1.06243
1.06243
1.06243
1.06243
1.06243
1.06243
1.06243
1.06243
1.06243
1.06243
1.06243
1.06243
1.06243
0.884233
1.06216
1.06242
1.06216
1.06242
1.06242
1.06243
1.06242
1.06243
1.06243
1.06243
1.06243
1.06243
1.06243
1.06243
1.06243
1.06243
1.06243
1.06243
1.06243
1.06243
1.06243
1.06243
1.06216
1.06242
1.06216
1.06242
1.06242
1.06243
1.06242
1.06243
1.06243
1.06243
1.06243
1.06243
1.06243
1.06243
1.06243
1.06243
1.06243
1.06243
1.06243
1.06243
1.06243
1.06243
0.884233
1.06216
1.06242
1.06216
1.06242
1.06242
1.06243
1.06242
1.06243
1.06243
1.06243
1.06243
1.06243
1.06243
1.06243
1.06243
1.06243
1.06243
1.06243
1.06243
1.06243
1.06243
1.06243
1.06243
1.06216
1.06242
1.06216
1.06242
1.06242
1.06243
1.06242
1.06243
1.06243
1.06243
1.06243
1.06243
1.06243
1.06243
1.06243
1.06243
1.06243
1.06243
1.06243
1.06243
1.06243
1.06243
1.06243
0.884233
1.06216
1.06242
1.06216
1.06242
1.06242
1.06243
1.06242
1.06243
1.06243
1.06243
1.06243
1.06243
1.06243
1.06243
1.06243
1.06243
1.06243
1.06243
1.06243
1.06243
1.06243
1.06243
0.884233
1.06216
1.06242
1.06216
1.06242
1.06242
1.06243
1.06242
1.06243
1.06243
1.06243
1.06243
1.06243
1.06243
1.06243
1.06243
1.06243
1.06243
1.06243
1.06243
1.06243
1.06243
1.06243
0.884233
0.884233
1.06216
1.06242
1.06216
1.06242
1.06242
1.06243
1.06242
1.06243
1.06243
1.06243
1.06243
1.06243
1.06243
1.06243
1.06243
1.06243
1.06243
1.06243
1.06243
1.06243
1.06243
1.06243
1.06243
0.884233
1.06216
1.06242
1.06216
1.06242
1.06242
1.06243
1.06242
1.06243
1.06243
1.06243
1.06243
1.06243
1.06243
1.06243
1.06243
1.06243
1.06243
1.06243
1.06243
1.06243
1.06243
1.06243
1.06243
0.884233
1.06216
1.06242
1.06216
1.06242
1.06242
1.06243
1.06242
1.06243
1.06243
1.06243
1.06243
1.06243
1.06243
1.06243
1.06243
1.06243
1.06243
1.06243
1.06243
1.06243
1.06243
1.06243
1.06216
1.06242
1.06216
1.06242
1.06242
1.06243
1.06242
1.06243
1.06243
1.06243
1.06243
1.06243
1.06243
1.06243
1.06243
1.06243
1.06243
1.06243
1.06243
1.06243
1.06243
1.06243
0.884233
1.06216
1.06242
1.06216
1.06242
1.06242
1.06243
1.06242
1.06243
1.06243
1.06243
1.06243
1.06242
1.06243
1.06242
1.06243
1.06225
1.06243
1.06243
1.06243
1.06243
1.06243
1.06243
1.06241
1.06216
1.06241
1.06048
1.0572
1.06242
1.06242
1.05689
1.05642
1.06241
1.06236
1.05526
1.04481
1.06235
1.04327
0.96896
1.061
0.917045
1.06243
1.06243
1.06243
1.06243
1.06243
1.06243
0.83466
0.991006
0.849517
0.866662
0.979648
0.919526
0.861727
0.252095
1.06243
1.06243
1.06243
1.06243
1.06243
1.06243
0.276425
0.695716
0.723678
0.261751
0.436862
1.00687
0.891414
0.905958
0.895031
0.287809
0.843539
0.956831
0.813753
0.477995
0.907782
0.734265
0.251269
0.243034
0.654622
0.242258
0.249343
0.280509
0.728329
0.3026
0.959545
0.989328
0.990884
0.856005
0.828459
0.855771
0.994698
0.850225
0.981324
0.848798
0.981206
0.849039
0.981938
0.866039
0.983824
0.877359
0.989607
0.959664
0.963659
0.964438
0.964438
0.964438
0.964438
0.964438
0.964438
0.964438
0.964438
0.964438
0.964438
0.964438
0.964438
0.963659
0.959664
0.725789
0.918451
0.483929
0.753678
0.243614
0.654759
0.242288
0.248226
0.300579
0.990487
0.992159
0.404834
0.881832
1.04845
1.0323
1.04195
0.976856
1.03627
0.972334
1.03596
0.967486
1.02197
0.958856
1.00847
0.885551
0.990379
0.883055
0.98347
0.509124
0.490682
0.458947
0.497282
0.531213
0.531213
0.531213
0.531213
0.531213
0.531213
0.531213
0.531213
0.531213
0.531213
0.531213
0.531213
0.531213
0.531213
0.531213
0.531213
0.531213
0.531213
0.531213
0.531213
0.531213
0.531213
0.531213
0.531213
0.531213
0.531213
0.531213
0.531213
0.531213
0.531213
0.521408
0.490674
0.458917
1.0435
1.0577
1.06166
1.06232
1.03419
0.035181
0.101206
0.358951
0.229257
1.06239
1.06242
1.06242
1.0624
1.06235
1.06216
1.0624
1.06242
1.06216
1.06235
1.06242
1.0624
1.06183
1.06225
1.06081
1.06226
1.06243
1.06243
1.06243
1.03938
1.05752
1.05752
1.02904
1.05689
1.05459
1.0221
1.06183
0.939607
0.958966
1.03888
1.03111
1.06241
1.0624
1.06242
1.06243
1.06243
1.06243
0.982356
1.03924
1.05779
1.05746
1.0549
1.06242
1.06243
1.06243
1.06241
1.06243
1.06243
1.06241
1.06183
1.06242
1.06233
1.06238
1.06242
1.06243
1.06243
1.06243
1.06243
1.06243
1.06243
1.06242
1.06242
1.06243
1.06243
1.0617
1.06243
1.06243
1.06243
1.06243
1.06243
1.06243
1.06243
1.06183
1.06243
1.06243
1.06243
1.06243
1.06243
1.06243
1.06243
1.06243
1.06243
1.06243
1.03415
1.06243
1.06243
1.06243
1.0617
1.06243
1.06243
1.06243
1.06243
1.06243
1.06243
1.06243
1.06183
1.06243
1.06243
1.06243
1.06243
1.06243
1.06243
1.06243
1.06243
1.06243
1.06243
1.06243
1.06243
1.06243
1.06243
1.0617
1.06243
1.06243
1.06243
1.06243
1.06243
1.06243
1.06243
1.06183
1.06243
1.06243
1.06243
1.06243
1.06243
1.06243
1.06243
1.06243
1.06243
1.06243
1.03415
1.06243
1.06243
1.06243
1.0617
1.06243
1.06243
1.06243
1.06243
1.06243
1.06243
1.06243
1.06183
1.06243
1.06243
1.06243
1.06243
1.06243
1.06243
1.06243
1.06243
1.06243
1.06243
1.06243
1.06243
1.06243
1.0617
1.06243
1.06243
1.06243
1.06243
1.06243
1.06243
1.06243
1.06183
1.06243
1.06243
1.06243
1.06243
1.06243
1.06243
1.06243
1.06243
1.06243
1.06243
1.03415
1.06243
1.06243
1.06243
1.0617
1.06243
1.06243
1.06243
1.06243
1.06243
1.06243
1.06243
1.06183
1.06243
1.06243
1.06243
1.06243
1.06243
1.06243
1.06243
1.06243
1.06243
1.06243
1.06243
1.06243
1.06243
1.0617
1.06243
1.06243
1.06243
1.06243
1.06243
1.06243
1.06243
1.06183
1.06243
1.06243
1.06243
1.06243
1.06243
1.06243
1.06243
1.06243
1.06243
1.06243
1.03415
1.06243
1.06243
1.06243
1.0617
1.06243
1.06243
1.06243
1.06243
1.06243
1.06243
1.06243
1.06183
1.06243
1.06243
1.06243
1.06243
1.06243
1.06243
1.06243
1.06243
1.06243
1.06243
1.06243
1.06243
1.06243
1.06243
1.0617
1.06243
1.06243
1.06243
1.06243
1.06243
1.06243
1.06243
1.06183
1.06243
1.06243
1.06243
1.06243
1.06243
1.06243
1.06243
1.06243
1.06243
1.06243
1.03415
1.06243
1.06243
1.06243
1.0617
1.06243
1.06243
1.06243
1.06243
1.06243
1.06243
1.06243
1.06183
1.06243
1.06243
1.06243
1.06243
1.06243
1.06243
1.06243
1.06243
1.06243
1.06243
1.06243
1.06243
1.06243
1.06243
1.0617
1.06243
1.06243
1.06243
1.06243
1.06243
1.06243
1.06243
1.06183
1.06243
1.06243
1.06243
1.06243
1.06243
1.06243
1.06243
1.06243
1.06243
1.06243
1.03415
1.06243
1.06243
1.06243
1.0617
1.06243
1.06243
1.06243
1.06243
1.06243
1.06243
1.06243
1.06183
1.06243
1.06243
1.06243
1.06243
1.06243
1.06243
1.06243
1.06243
1.06243
1.06243
1.06243
1.06243
1.06243
1.0617
1.06243
1.06243
1.06243
1.06243
1.06243
1.06243
1.06243
1.06183
1.06243
1.06243
1.06243
1.06243
1.06243
1.06243
1.06243
1.06243
1.06243
1.06243
1.03415
1.06243
1.06243
1.06243
1.0617
1.06243
1.06243
1.06243
1.06243
1.06243
1.06243
1.06243
1.06183
1.06243
1.06243
1.06243
1.06243
1.06243
1.06243
1.06243
1.06243
1.06243
1.06243
1.06243
1.06243
1.06243
1.0617
1.06243
1.06243
1.06243
1.06243
1.06243
1.06243
1.06243
1.06183
1.06243
1.06243
1.06243
1.06243
1.06243
1.06243
1.06243
1.06243
1.06243
1.06243
1.03415
1.06243
1.06243
1.06243
1.0617
1.06235
1.06169
1.06178
1.0623
1.06201
1.06139
1.05392
1.06183
1.05852
1.06155
1.06195
1.05642
1.06243
1.06242
1.06243
1.06243
1.06243
1.06243
1.06233
1.06238
1.06197
1.06202
1.06056
1.06183
1.06127
1.06238
1.06231
1.06243
1.06243
1.06243
1.06243
1.06243
1.06243
1.06243
1.06243
1.06243
1.06243
1.06243
1.06243
1.06243
1.06243
1.06243
1.06243
1.06097
1.06183
1.06097
0.768125
0.757616
0.818727
1.03922
1.05748
1.03919
1.05743
1.06163
1.06233
1.06163
1.06233
1.03942
1.05744
1.04002
1.05789
1.06163
1.06233
1.0617
1.06234
1.04152
1.05812
1.03961
1.06175
1.06234
1.01767
0.906656
1.01686
1.05389
1.05255
1.02154
1.05366
1.06243
1.06243
1.06243
1.06243
1.06243
1.06243
1.06243
1.06243
1.06243
1.06243
1.06243
1.06243
1.06243
1.06243
1.06097
1.06183
1.06097
1.05851
1.06155
1.0564
1.06195
1.05945
1.0609
0.996648
1.0443
1.04433
1.0412
1.06233
1.06239
1.06238
1.04297
1.06029
1.05379
1.06242
1.06242
1.06242
1.06243
1.06242
1.06243
1.06243
1.06243
1.06242
1.06243
1.06242
1.06243
1.06243
1.06243
1.06243
1.06243
1.06242
1.06243
1.06242
1.06243
1.06243
1.06243
1.06241
1.06221
1.06241
1.06243
1.06242
1.06241
1.06243
1.06243
1.06243
1.06243
1.06243
1.06243
1.06243
1.06243
1.06243
1.06243
1.06243
1.06243
1.06243
1.06243
1.06243
1.06243
1.06097
1.06183
1.06097
1.06243
1.06243
1.06243
1.06242
1.06242
1.06242
1.06243
1.06243
1.05803
1.0617
1.05805
1.06242
1.06243
1.06243
1.06243
1.06242
1.06243
1.06243
1.06243
1.06243
1.06243
1.06243
1.06243
1.06243
1.06243
1.06243
1.06243
1.06243
1.06243
1.06243
1.06243
1.06243
1.06243
1.06243
1.06243
1.06243
1.06243
1.06243
1.06243
1.06243
1.06243
1.06243
1.06243
1.06243
1.06243
1.06243
1.06243
1.06243
1.06243
1.06243
1.06243
1.06243
1.06243
1.06243
1.06243
1.06243
1.06097
1.06183
1.06097
1.06243
1.06243
1.06243
1.06243
1.06228
1.05667
1.06243
1.06243
1.06243
1.06243
1.05805
1.0617
1.05805
1.06235
1.06216
1.0624
1.06242
1.06216
1.06235
1.06242
1.0624
1.06243
1.06242
1.06243
1.06243
1.06242
1.06243
1.06243
1.06243
1.06243
1.06243
1.06243
1.06243
1.06243
1.06243
1.06243
1.06243
1.06243
1.06243
1.06243
1.06243
1.06243
1.06243
1.06243
1.06243
1.06243
1.06243
1.06243
1.06243
1.06243
1.06243
1.06243
1.06243
1.06243
1.06243
1.06243
1.06243
1.06243
1.06243
1.06243
1.06243
1.06243
1.06243
1.06243
1.06097
1.06183
1.06097
1.06243
1.06243
1.06243
1.06243
1.06243
1.06243
1.06243
1.06243
1.05805
1.0617
1.05805
1.06235
1.06216
1.0624
1.06242
1.06216
1.06235
1.06242
1.0624
1.06243
1.06242
1.06243
1.06243
1.06242
1.06243
1.06243
1.06243
1.06243
1.06243
1.06243
1.06243
1.06243
1.06243
1.06243
1.06243
1.06243
1.06243
1.06243
1.06243
1.06243
1.06243
1.06243
1.06243
1.06243
1.06243
1.06243
1.06243
1.06243
1.06243
1.06243
1.06243
1.06243
1.06243
1.06243
1.06243
1.06243
1.06243
1.06243
1.06243
1.06243
1.06243
1.06097
1.06183
1.06097
1.06243
1.06243
1.06243
1.06243
1.06228
1.05667
1.05667
1.06243
1.06243
1.06243
1.06243
1.06243
1.06243
1.06243
1.05805
1.0617
1.05805
1.06235
1.06216
1.0624
1.06242
1.06216
1.06235
1.06242
1.0624
1.06243
1.06242
1.06243
1.06243
1.06242
1.06243
1.06243
1.06243
1.06243
1.06243
1.06243
1.06243
1.06243
1.06243
1.06243
1.06243
1.06243
1.06243
1.06243
1.06243
1.06243
1.06243
1.06243
1.06243
1.06243
1.06243
1.06243
1.06243
1.06243
1.06243
1.06243
1.06243
1.06243
1.06243
1.06243
1.06243
1.06243
1.06243
1.06243
1.06243
1.06243
1.06243
1.06097
1.06183
1.06097
1.06243
1.06243
1.06243
1.06243
1.06243
1.06243
1.06228
1.05667
1.06243
1.06243
1.06243
1.06243
1.06243
1.06243
1.05805
1.0617
1.05805
1.06235
1.06216
1.0624
1.06242
1.06216
1.06235
1.06242
1.0624
1.06243
1.06242
1.06243
1.06243
1.06242
1.06243
1.06243
1.06243
1.06243
1.06243
1.06243
1.06243
1.06243
1.06243
1.06243
1.06243
1.06243
1.06243
1.06243
1.06243
1.06243
1.06243
1.06243
1.06243
1.06243
1.06243
1.06243
1.06243
1.06243
1.06243
1.06243
1.06243
1.06243
1.06243
1.06243
1.06243
1.06243
1.06243
1.06243
1.06243
1.06097
1.06183
1.06097
1.06243
1.06243
1.06243
1.05667
1.06228
1.05667
1.06243
1.06243
1.06243
1.06243
1.06243
1.06243
1.05805
1.0617
1.05805
1.06235
1.06216
1.0624
1.06242
1.06216
1.06235
1.06242
1.0624
1.06243
1.06242
1.06243
1.06243
1.06242
1.06243
1.06243
1.06243
1.06243
1.06243
1.06243
1.06243
1.06243
1.06243
1.06243
1.06243
1.06243
1.06243
1.06243
1.06243
1.06243
1.06243
1.06243
1.06243
1.06243
1.06243
1.06243
1.06243
1.06243
1.06243
1.06243
1.06243
1.06243
1.06243
1.06243
1.06243
1.06243
1.06243
1.06243
1.06243
1.06243
1.06243
1.06243
1.06097
1.06183
1.06097
1.06243
1.06243
1.06243
1.06228
1.05667
1.06228
1.06243
1.06243
1.06243
1.06243
1.06243
1.06243
1.06243
1.05805
1.0617
1.05805
1.06235
1.06216
1.0624
1.06242
1.06216
1.06235
1.06242
1.0624
1.06243
1.06242
1.06243
1.06243
1.06242
1.06243
1.06243
1.06243
1.06243
1.06243
1.06243
1.06243
1.06243
1.06243
1.06243
1.06243
1.06243
1.06243
1.06243
1.06243
1.06243
1.06243
1.06243
1.06243
1.06243
1.06243
1.06243
1.06243
1.06243
1.06243
1.06243
1.06243
1.06243
1.06243
1.06243
1.06243
1.06243
1.06243
1.06243
1.06243
1.06243
1.06243
1.06097
1.06183
1.06097
1.06243
1.06243
1.06243
1.06243
1.06243
1.06228
1.05667
1.06243
1.06243
1.06243
1.06243
1.06243
1.06243
1.05805
1.0617
1.05805
1.06235
1.06216
1.0624
1.06242
1.06216
1.06235
1.06242
1.0624
1.06243
1.06242
1.06243
1.06243
1.06242
1.06243
1.06243
1.06243
1.06243
1.06243
1.06243
1.06243
1.06243
1.06243
1.06243
1.06243
1.06243
1.06243
1.06243
1.06243
1.06243
1.06243
1.06243
1.06243
1.06243
1.06243
1.06243
1.06243
1.06243
1.06243
1.06243
1.06243
1.06243
1.06243
1.06243
1.06243
1.06243
1.06243
1.06243
1.06243
1.06243
1.06243
1.06097
1.06183
1.06097
1.06243
1.06243
1.06243
1.06243
1.06228
1.06243
1.06243
1.06243
1.06243
1.06243
1.05805
1.0617
1.05805
1.06235
1.06216
1.0624
1.06242
1.06216
1.06235
1.06242
1.0624
1.06243
1.06242
1.06243
1.06243
1.06242
1.06243
1.06243
1.06243
1.06243
1.06243
1.06243
1.06243
1.06243
1.06243
1.06243
1.06243
1.06243
1.06243
1.06243
1.06243
1.06243
1.06243
1.06243
1.06243
1.06243
1.06243
1.06243
1.06243
1.06243
1.06243
1.06243
1.06243
1.06243
1.06243
1.06243
1.06243
1.06243
1.06243
1.06243
1.06243
1.06243
1.06243
1.06243
1.06243
1.06243
1.06097
1.06183
1.06097
1.06243
1.06243
1.06243
1.06243
1.06228
1.05667
1.06243
1.06243
1.06243
1.06243
1.05805
1.0617
1.05805
1.06235
1.06216
1.0624
1.06242
1.06216
1.06235
1.06242
1.0624
1.06243
1.06242
1.06243
1.06243
1.06242
1.06243
1.06243
1.06243
1.06243
1.06243
1.06243
1.06243
1.06243
1.06243
1.06243
1.06243
1.06243
1.06243
1.06243
1.06243
1.06243
1.06243
1.06243
1.06243
1.06243
1.06243
1.06243
1.06243
1.06243
1.06243
1.06243
1.06243
1.06243
1.06243
1.06243
1.06243
1.06243
1.06243
1.06243
1.06243
1.06243
1.06243
1.06243
1.06097
1.06183
1.06097
1.06243
1.06243
1.06243
1.06243
1.06243
1.06243
1.06243
1.06243
1.05805
1.0617
1.05805
1.06235
1.06216
1.0624
1.06242
1.06216
1.06235
1.06242
1.0624
1.06243
1.06242
1.06243
1.06243
1.06242
1.06243
1.06243
1.06243
1.06243
1.06243
1.06243
1.06243
1.06243
1.06243
1.06243
1.06243
1.06243
1.06243
1.06243
1.06243
1.06243
1.06243
1.06243
1.06243
1.06243
1.06243
1.06243
1.06243
1.06243
1.06243
1.06243
1.06243
1.06243
1.06243
1.06243
1.06243
1.06243
1.06243
1.06243
1.06243
1.06243
1.06243
1.06097
1.06183
1.06097
1.06243
1.06243
1.06243
1.06243
1.06228
1.05667
1.05667
1.06243
1.06243
1.06243
1.06243
1.06243
1.06243
1.06243
1.05805
1.0617
1.05805
1.06235
1.06216
1.0624
1.06242
1.06216
1.06235
1.06242
1.0624
1.06243
1.06242
1.06243
1.06243
1.06242
1.06243
1.06243
1.06243
1.06243
1.06243
1.06243
1.06243
1.06243
1.06243
1.06243
1.06243
1.06243
1.06243
1.06243
1.06243
1.06243
1.06243
1.06243
1.06243
1.06243
1.06243
1.06243
1.06243
1.06243
1.06243
1.06243
1.06243
1.06243
1.06243
1.06243
1.06243
1.06243
1.06243
1.06243
1.06243
1.06243
1.06243
1.06097
1.06183
1.06097
1.06243
1.06243
1.06243
1.06243
1.06243
1.06243
1.06228
1.05667
1.06243
1.06243
1.06243
1.06243
1.06243
1.06243
1.05805
1.0617
1.05805
1.06235
1.06216
1.0624
1.06242
1.06216
1.06235
1.06242
1.0624
1.06243
1.06242
1.06243
1.06243
1.06242
1.06243
1.06243
1.06243
1.06243
1.06243
1.06243
1.06243
1.06243
1.06243
1.06243
1.06243
1.06243
1.06243
1.06243
1.06243
1.06243
1.06243
1.06243
1.06243
1.06243
1.06243
1.06243
1.06243
1.06243
1.06243
1.06243
1.06243
1.06243
1.06243
1.06243
1.06243
1.06243
1.06243
1.06243
1.06243
1.06097
1.06183
1.06097
1.06243
1.06243
1.06243
1.05667
1.06228
1.05667
1.06243
1.06243
1.06243
1.06243
1.06243
1.06243
1.05805
1.0617
1.05805
1.06235
1.06216
1.0624
1.06242
1.06216
1.06235
1.06242
1.0624
1.06243
1.06242
1.06243
1.06243
1.06242
1.06243
1.06243
1.06243
1.06243
1.06243
1.06243
1.06243
1.06243
1.06243
1.06243
1.06243
1.06243
1.06243
1.06243
1.06243
1.06243
1.06243
1.06243
1.06243
1.06243
1.06243
1.06243
1.06243
1.06243
1.06243
1.06243
1.06243
1.06243
1.06243
1.06243
1.06243
1.06243
1.06243
1.06243
1.06243
1.06243
1.06243
1.06243
1.06097
1.06183
1.06097
1.06243
1.06243
1.06243
1.06228
1.05667
1.06228
1.06243
1.06243
1.06243
1.06243
1.06243
1.06243
1.06243
1.05805
1.0617
1.05805
1.06235
1.06216
1.0624
1.06242
1.06216
1.06234
1.06242
1.06239
1.06243
1.06242
1.06243
1.06243
1.06242
1.06243
1.06243
1.06243
1.06243
1.06243
1.06243
1.06243
1.06243
1.06242
1.06243
1.06242
1.06243
1.06243
1.06243
1.06243
1.06242
1.06242
1.06243
1.06242
1.06241
1.06241
1.06243
1.06241
1.06243
1.06243
1.06243
1.06243
1.06243
1.06243
1.06243
1.06243
1.06243
1.06243
1.06243
1.06243
1.06243
1.06243
1.06097
1.06183
1.06097
1.06242
1.06233
1.06242
1.06238
1.06242
1.06228
1.05667
1.06243
1.06243
1.06243
1.06242
1.06242
1.06242
1.05805
1.0617
1.05803
1.06234
1.06214
1.06239
1.06232
1.05946
1.06192
1.05804
1.06158
1.06242
1.06232
1.06242
1.06231
1.0568
1.06153
1.05673
1.06146
1.0624
1.06228
1.06238
1.06184
1.05244
1.06121
1.04818
1.05874
1.06234
1.06178
1.06233
1.04176
1.05837
1.03969
1.05257
1.02225
1.01778
0.906813
1.05367
1.02156
1.06243
1.06243
1.06243
1.06243
1.06243
1.06243
1.06243
1.06243
1.06243
1.06243
1.06243
1.06243
1.06243
1.06243
1.06097
1.06183
1.06097
1.05946
0.958398
1.0389
1.03111
1.04354
1.0609
1.06239
1.06238
1.06235
1.04459
1.0447
1.05415
1.05645
1.04493
1.06243
1.06243
1.06243
1.06243
1.06243
1.06243
1.06243
1.06243
1.06243
1.06243
1.06243
1.06243
1.06243
1.06243
1.06243
1.06097
1.06183
1.06097
0.483929
0.359919
0.335014
0.310914
0.129018
0.141958
0.460706
0.526086
0.525443
0.528982
0.530802
0.491412
0.495071
0.523365
0.527826
0.530545
0.530227
0.53121
0.531204
0.530856
0.516773
0.521251
0.306452
0.101671
0.119129
0.297642
0.139174
0.129957
0.528902
0.527006
0.528222
0.530176
0.530354
0.530199
0.529992
0.530435
0.528321
0.529619
0.531063
0.531201
0.531212
0.531212
0.530095
0.265412
0.279002
0.116411
1.05775
1.05775
1.05775
1.05775
1.05775
1.05775
1.05775
1.05775
1.05775
1.05775
1.05775
1.05775
1.05775
1.05775
1.05775
1.05775
1.05775
1.05775
1.05775
1.05775
1.05775
1.05775
1.05775
1.05775
1.05775
1.05775
1.05775
1.05775
1.05775
1.05775
1.05775
1.05775
1.05775
0.362054
0.507008
0.514169
0.932379
1.0335
1.03991
0.480048
0.803703
1.06229
1.06233
0.881257
0.998416
1.06243
1.06243
1.06243
1.06243
1.06234
1.00006
1.06243
1.06243
1.06234
1.00006
1.06243
1.06243
1.06234
1.00006
1.06243
1.06243
1.06243
1.06234
0.884233
1.00006
1.06243
1.06243
1.06243
1.06234
0.884233
1.00006
1.06243
1.06243
1.06243
1.06234
0.884233
1.00006
1.06243
1.06243
1.06234
0.884233
1.00006
1.06243
1.06234
0.884233
1.00006
1.06243
1.06243
1.06243
1.06243
1.06234
1.00006
1.06243
1.06243
1.06234
1.00006
1.06243
1.06243
1.06234
1.00006
1.06243
1.06243
1.06243
1.06234
0.884233
1.00006
1.06243
1.06243
1.06243
1.06234
0.884233
1.00006
1.06243
1.06243
1.06243
1.06234
0.884233
1.00006
1.06243
1.06243
1.06234
0.884226
1.00005
1.06127
1.06226
0.87078
0.992118
0.798599
0.700127
0.960525
0.994974
0.700942
0.44939
0.6987
0.450944
0.888497
0.814953
0.982107
0.98439
0.983206
0.979029
0.981165
0.984466
0.872756
0.692381
0.979348
0.983201
0.979893
0.982403
0.128999
0.294944
0.298366
0.375792
0.411306
0.404832
0.62855
0.535514
0.725788
1.03137
0.992105
0.884226
1.00005
0.964438
1.03415
0.964438
0.884233
1.00006
0.964438
1.00006
0.964438
1.00006
0.964438
1.03415
1.00006
0.964438
0.884233
1.00006
0.964438
0.964438
1.00006
0.964438
1.03415
1.00006
0.884233
1.00006
0.964438
1.03415
0.964438
0.884233
1.00006
0.964438
1.00006
0.964438
1.00006
0.964438
1.03415
1.00006
0.964438
0.884233
1.00006
0.964438
0.964438
1.00006
0.964438
1.03373
0.998417
0.480904
0.806649
0.448713
0.88917
0.815083
0.508581
0.991269
0.987794
0.507939
0.528869
0.990738
0.890768
0.507906
0.514743
0.521716
0.406711
0.14306
0.330454
0.161739
0.176665
0.192463
0.481173
0.621585
0.623947
0.529926
0.606265
0.528077
0.530299
0.621255
0.520081
0.594146
0.621401
0.594476
0.54681
0.638282
0.638549
0.638549
0.638549
0.638549
0.638549
0.638549
0.63851
0.614949
0.129996
0.188217
0.298011
0.525841
0.52493
0.500074
0.440995
0.521114
0.384592
0.980049
1.01638
0.58869
0.498242
0.397006
0.389801
0.239695
0.497532
0.386606
0.469281
0.523372
0.519386
0.385512
0.232584
0.275068
0.0881461
0.530176
0.530921
0.531074
0.519904
0.501661
0.523035
0.472111
0.414159
0.531208
0.53121
0.531213
0.531213
0.531213
0.531213
0.531213
0.531213
0.531213
0.531213
0.531213
0.531213
0.531213
0.531213
0.531213
0.531213
0.531213
0.531213
0.531213
0.531213
0.531213
0.531213
0.531213
0.531213
0.531213
0.531213
0.531213
0.531213
0.531213
0.531213
0.531213
0.531213
0.531213
0.531213
0.531213
0.531213
0.531213
0.531213
0.531213
0.531213
0.531213
0.531213
0.531213
0.531213
0.531213
0.531213
0.531213
0.531213
0.531213
0.531213
0.531208
0.53121
0.414159
0.0881463
0.36313
0.279099
0.232584
0.769386
0.634764
0.514407
0.451654
0.513238
0.454965
0.6207
0.512498
0.450273
0.51267
0.449841
0.512345
0.448709
0.512228
0.449358
0.620585
0.512249
0.450146
0.512539
0.448542
0.512108
0.448235
0.512114
0.448152
0.621308
0.51315
0.452471
0.513043
0.45307
0.51291
0.449772
0.513161
0.45115
0.623787
0.517935
0.459235
0.515522
0.470927
0.639061
0.612051
0.531204
0.61953
0.620223
0.531165
0.531049
0.622629
0.530671
0.648867
0.517476
0.624961
0.46338
0.518463
0.517125
0.23694
0.324707
0.530002
0.498675
0.429953
0.491638
0.434943
0.239473
0.181357
0.416167
0.426367
0.530867
0.529859
0.496284
0.577851
0.529079
0.530716
0.583059
0.521408
0.531213
0.593892
0.531206
0.531213
0.599455
0.807215
0.531213
0.531213
0.599475
0.807294
0.531213
0.807302
0.531213
0.531213
0.599477
0.531213
0.531213
0.531213
0.599477
0.531213
0.531213
0.531213
0.599477
0.807302
0.807302
0.531213
0.531213
0.599477
0.807302
0.531213
0.531213
0.599477
0.531213
0.531213
0.807302
0.531213
0.531213
0.599477
0.531213
0.531213
0.599477
0.807302
0.531213
0.531213
0.599477
0.807302
0.531213
0.807302
0.531213
0.531213
0.599477
0.531213
0.531213
0.531213
0.599477
0.531213
0.531213
0.531213
0.599477
0.807302
0.807302
0.531213
0.531213
0.599477
0.807302
0.531213
0.531213
0.599477
0.531213
0.531213
0.807302
0.531213
0.531213
0.599477
0.531213
0.531213
0.599477
0.807302
0.531213
0.531213
0.599477
0.807302
0.531213
0.807302
0.531213
0.531213
0.599477
0.531213
0.531213
0.531213
0.599477
0.531213
0.531213
0.531213
0.599477
0.807302
0.807302
0.531213
0.531213
0.599477
0.807302
0.531213
0.531213
0.599477
0.531213
0.531213
0.807302
0.531213
0.531213
0.599477
0.531213
0.531213
0.599477
0.807302
0.531213
0.531213
0.599477
0.807302
0.531213
0.807302
0.531213
0.531213
0.599477
0.531213
0.531213
0.531213
0.599477
0.531213
0.531213
0.531213
0.599477
0.807302
0.807302
0.531213
0.531213
0.599477
0.807302
0.531213
0.531213
0.599475
0.531213
0.531213
0.807302
0.531213
0.531213
0.599455
0.531213
0.531213
0.593892
0.787501
0.531206
0.531144
0.577852
0.733666
0.529079
0.583061
0.180019
0.186115
0.314286
0.0960045
0.0707477
0.365338
0.390413
0.318071
0.125934
0.197876
0.484287
0.404083
0.62295
0.625075
0.529391
0.629092
0.53042
0.696512
0.734276
0.239472
0.416167