/*--------------------------------*- C++ -*----------------------------------*\
  =========                 |
  \\      /  F ield         | OpenFOAM: The Open Source CFD Toolbox
   \\    /   O peration     | Website:  https://openfoam.org
    \\  /    A nd           | Version:  10
     \\/     M anipulation  |
\*---------------------------------------------------------------------------*/
FoamFile
{
    format      ascii;
    class       volVectorField;
    location    "0";
    object      U;
}
// * * * * * * * * * * * * * * * * * * * * * * * * * * * * * * * * * * * * * //

dimensions      [0 1 -1 0 0 0 0];

internalField   nonuniform List<vector> 
8810
(
(0.403227 -0.0130677 -4.50834e-05)
(0.403109 -0.00197408 9.09582e-06)
(0.403292 0.00669584 9.47093e-06)
(0.403751 0.016357 4.19578e-06)
(0.405139 0.0286452 -3.00674e-06)
(0.409786 0.045859 -5.27e-06)
(0.42445 0.0699238 3.90744e-05)
(0.46072 0.0943233 5.71813e-05)
(0.407197 -0.012767 -6.48838e-05)
(0.406688 -0.00200334 -1.72873e-06)
(0.407044 0.00650209 3.72766e-06)
(0.408195 0.0158878 1.56681e-06)
(0.410944 0.0274037 -2.03442e-06)
(0.417499 0.04239 7.43621e-06)
(0.432645 0.0608168 3.61977e-05)
(0.462284 0.0758753 4.94667e-05)
(0.497096 0.0656535 -5.18096e-05)
(0.521714 0.040045 -4.21337e-05)
(0.527309 0.00300006 -3.33669e-05)
(0.511417 -0.0268565 -0.00017687)
(0.484306 -0.0368041 0.000308229)
(0.454962 -0.0315154 9.03016e-05)
(0.429884 -0.00329989 -2.87059e-05)
(0.419776 0.0349676 -1.00919e-05)
(0.424648 0.0869425 1.68955e-05)
(0.463654 0.158824 3.61254e-05)
(0.57924 0.235297 5.06052e-05)
(0.780982 0.197136 -1.84179e-05)
(0.410865 -0.0122193 -7.83438e-05)
(0.41015 -0.00200896 -9.90879e-06)
(0.410659 0.00616121 -7.44518e-07)
(0.412364 0.0150559 -5.01312e-07)
(0.416076 0.025566 -9.71902e-07)
(0.423657 0.0383144 9.64125e-06)
(0.438364 0.0523523 -2.39587e-06)
(0.463029 0.0618264 2.95046e-06)
(0.490683 0.0540004 -4.31753e-05)
(0.510509 0.0334528 -2.75166e-05)
(0.51549 0.00527332 -1.89282e-05)
(0.504256 -0.0176589 -7.9108e-05)
(0.483495 -0.0261415 0.000161628)
(0.460249 -0.0205586 4.63801e-05)
(0.442809 0.0026315 1.44755e-05)
(0.437012 0.0359075 -2.1298e-06)
(0.44726 0.0797263 1.50264e-05)
(0.48775 0.133259 2.79231e-05)
(0.580508 0.175282 3.59556e-05)
(0.710065 0.120935 -6.99507e-06)
(0.414248 -0.011539 -8.75266e-05)
(0.413432 -0.00200111 -1.61158e-05)
(0.41407 0.00569901 -4.27552e-06)
(0.41619 0.0139501 -2.33932e-06)
(0.420539 0.0233459 -1.41529e-06)
(0.428569 0.03403 1.37997e-05)
(0.442462 0.0447361 -6.90291e-07)
(0.46317 0.05075 -5.5952e-06)
(0.485579 0.0444885 -3.23571e-05)
(0.501791 0.0281777 -1.8752e-05)
(0.506423 0.00662086 -9.32289e-06)
(0.498648 -0.010993 -3.28964e-05)
(0.483104 -0.0177421 8.75007e-05)
(0.465692 -0.0122946 3.55231e-05)
(0.453374 0.00686743 1.62507e-05)
(0.451451 0.0350543 2.14046e-06)
(0.464719 0.0708581 1.33717e-05)
(0.502995 0.109673 2.3153e-05)
(0.575757 0.13087 3.17083e-05)
(0.660961 0.0771087 -5.16123e-07)
(0.417365 -0.0107877 -9.40781e-05)
(0.416495 -0.00198522 -2.08702e-05)
(0.417226 0.00514455 -7.07414e-06)
(0.419635 0.0126507 -3.84261e-06)
(0.424369 0.0209032 -2.36641e-06)
(0.432509 0.0297618 9.43761e-06)
(0.44538 0.037929 -2.5078e-06)
(0.463027 0.0417674 -1.1512e-05)
(0.481504 0.0366655 -2.23737e-05)
(0.495016 0.0238067 -1.28974e-05)
(0.499482 0.00727155 -4.872e-06)
(0.494395 -0.00622474 -1.45171e-05)
(0.482937 -0.0113684 5.55818e-05)
(0.470333 -0.00634179 2.1578e-05)
(0.462199 0.00951064 1.72065e-05)
(0.463281 0.0329115 4.46068e-06)
(0.477933 0.0614821 1.20323e-05)
(0.512417 0.0890928 1.90987e-05)
(0.56908 0.0982987 2.83565e-05)
(0.626642 0.0510642 4.85911e-06)
(0.420233 -0.00999184 -9.90171e-05)
(0.419315 -0.0019592 -2.45632e-05)
(0.420094 0.0045272 -9.28029e-06)
(0.422681 0.0112253 -5.02913e-06)
(0.427614 0.0183513 -3.03632e-06)
(0.435682 0.025617 -9.50042e-07)
(0.447429 0.0318324 -8.77107e-06)
(0.462737 0.0343083 -1.43586e-05)
(0.478273 0.0301401 -1.29028e-05)
(0.489764 0.0200679 -8.40351e-06)
(0.494128 0.00739555 -2.7432e-06)
(0.490953 -0.00284521 -1.63687e-05)
(0.483204 -0.00667862 -2.4549e-06)
(0.474272 -0.00220808 1.36086e-05)
(0.469471 0.0108224 1.60545e-05)
(0.472786 0.0299047 5.836e-06)
(0.487788 0.0522728 1.04845e-05)
(0.518107 0.0716426 1.63294e-05)
(0.562344 0.0743243 2.45833e-05)
(0.602315 0.0350178 6.40395e-06)
(0.422868 -0.0091535 -0.000102715)
(0.421872 -0.00191362 -2.74609e-05)
(0.422651 0.00387487 -1.14284e-05)
(0.425327 0.00972797 -5.79453e-06)
(0.430318 0.01577 -3.35012e-06)
(0.43811 0.0216523 2.03315e-06)
(0.449059 0.0263892 -1.17944e-05)
(0.462348 0.0279759 -2.55994e-05)
(0.475708 0.0245988 -9.32055e-06)
(0.485712 0.0167768 -6.43537e-06)
(0.490066 0.00711336 -1.50958e-06)
(0.48857 -0.000640152 1.11888e-05)
(0.48326 -0.00336042 9.22041e-06)
(0.477534 0.000486867 9.50225e-06)
(0.475376 0.0110708 1.39498e-05)
(0.480297 0.0263558 6.34054e-06)
(0.495056 0.043576 9.12442e-06)
(0.521458 0.0570213 1.33297e-05)
(0.556393 0.0564517 1.98364e-05)
(0.585088 0.0247302 6.0395e-06)
(0.425282 -0.00825623 -0.000105337)
(0.424156 -0.00183342 -2.97772e-05)
(0.424891 0.00320987 -1.31753e-05)
(0.427582 0.00819496 -1.1611e-05)
(0.432553 0.0132017 -1.32082e-05)
(0.440012 0.0178949 -1.03218e-05)
(0.450132 0.0214798 -3.93263e-06)
(0.462038 0.0225132 -7.35908e-06)
(0.47371 0.0198062 -6.59477e-06)
(0.482609 0.0138048 -4.90728e-06)
(0.486991 0.00650392 -9.81308e-07)
(0.486745 0.000696159 5.01797e-06)
(0.483535 -0.00120285 9.81432e-06)
(0.480211 0.0020451 7.20846e-06)
(0.480096 0.0104958 1.26754e-05)
(0.486132 0.0224936 6.95047e-06)
(0.500361 0.0355215 8.22268e-06)
(0.523378 0.0447722 1.03216e-05)
(0.551449 0.0428489 1.30123e-05)
(0.572766 0.0178304 4.77983e-06)
(0.427482 -0.00726819 -0.000107358)
(0.42615 -0.0016992 -3.15228e-05)
(0.426782 0.00255841 -1.25024e-05)
(0.429446 0.00665923 -6.42531e-06)
(0.434318 0.0106816 -1.80534e-06)
(0.441555 0.0143417 -9.63482e-07)
(0.450945 0.0170193 -4.01049e-06)
(0.461724 0.0176859 -6.21874e-06)
(0.472165 0.0155698 -6.6381e-06)
(0.480265 0.0110569 -4.33136e-06)
(0.484693 0.00563913 -7.31641e-07)
(0.485414 0.00137378 4.38554e-06)
(0.483829 8.2297e-05 7.41848e-06)
(0.482347 0.0027276 6.10098e-06)
(0.483737 0.00931182 7.65828e-06)
(0.490634 0.018477 7.87053e-06)
(0.504188 0.0281095 7.50021e-06)
(0.524453 0.0344095 8.14484e-06)
(0.547502 0.0322438 8.7095e-06)
(0.563866 0.0129927 4.60903e-06)
(0.429468 -0.00614211 -0.000108708)
(0.427837 -0.00148966 -3.28077e-05)
(0.428326 0.00193243 -1.37107e-05)
(0.430926 0.00514333 -6.61358e-06)
(0.43571 0.00822647 -2.34628e-06)
(0.442669 0.010973 -2.05558e-06)
(0.451526 0.0129029 -3.52927e-06)
(0.461462 0.0133235 -5.05377e-06)
(0.471006 0.0117394 -5.44357e-06)
(0.478541 0.00846576 -3.35549e-06)
(0.48302 0.00457795 -3.42776e-07)
(0.484467 0.0015488 3.74022e-06)
(0.484102 0.000701603 5.94881e-06)
(0.484003 0.00274871 5.32674e-06)
(0.486552 0.00764937 5.25841e-06)
(0.493801 0.0144156 8.9521e-06)
(0.506884 0.0212607 6.36625e-06)
(0.525064 0.0254784 6.78587e-06)
(0.544706 0.0236697 6.33356e-06)
(0.558019 0.00940858 -2.38281e-07)
(0.431235 -0.00481259 -0.000109618)
(0.42919 -0.0011859 -3.37271e-05)
(0.429509 0.00134115 -1.44349e-05)
(0.432035 0.00365018 -6.97608e-06)
(0.436731 0.00582736 -2.09848e-06)
(0.443478 0.00773724 -1.93818e-06)
(0.45193 0.00904044 -3.20742e-06)
(0.461264 0.00929516 -4.40665e-06)
(0.470185 0.0081969 -4.86436e-06)
(0.477338 0.00597936 -4.77715e-06)
(0.481853 0.00336968 -1.20438e-06)
(0.483823 0.00135548 3.14819e-06)
(0.484327 0.000831947 5.00313e-06)
(0.485209 0.00228653 4.89461e-06)
(0.48856 0.00567112 5.78616e-06)
(0.49612 0.0102935 7.29494e-06)
(0.508725 0.0148627 5.75409e-06)
(0.525431 0.017563 5.66923e-06)
(0.542917 0.0163627 4.80814e-06)
(0.554481 0.00652621 -7.0195e-07)
(0.43276 -0.00318947 -0.000110149)
(0.430168 -0.000777293 -3.43372e-05)
(0.430314 0.000785754 -1.49142e-05)
(0.432774 0.00217941 -7.2505e-06)
(0.4374 0.00347552 -3.42835e-06)
(0.444009 0.00460146 -3.13693e-06)
(0.452188 0.0053546 -2.99139e-06)
(0.461134 0.00549173 -4.02795e-06)
(0.469662 0.00484471 -5.65274e-06)
(0.476559 0.00355934 -2.61002e-06)
(0.481124 0.00206155 5.64764e-07)
(0.483425 0.000910703 2.79089e-06)
(0.484486 0.000628394 4.3549e-06)
(0.485995 0.00149755 4.65667e-06)
(0.489853 0.00348213 5.38254e-06)
(0.497593 0.00617134 6.69481e-06)
(0.509872 0.00878937 5.29902e-06)
(0.525669 0.0103049 4.8866e-06)
(0.542058 0.00973483 3.83056e-06)
(0.552943 0.00395732 2.94789e-06)
(0.434 -0.00114575 -0.000110208)
(0.430706 -0.00027311 -3.46424e-05)
(0.430725 0.000258302 -1.51486e-05)
(0.433144 0.000724411 -7.36547e-06)
(0.437736 0.00115399 -4.01426e-06)
(0.444276 0.00152665 -3.06349e-06)
(0.452321 0.0017735 -2.75035e-06)
(0.461074 0.00181816 -3.62272e-06)
(0.4694 0.00160224 -2.86226e-06)
(0.476195 0.00118216 -4.6205e-07)
(0.480771 0.000694248 8.2415e-07)
(0.483234 0.000319641 2.5374e-06)
(0.484568 0.000230612 3.98935e-06)
(0.486382 0.000519775 4.62839e-06)
(0.490485 0.00117358 5.27244e-06)
(0.498308 0.00205661 6.19203e-06)
(0.510422 0.00290799 4.91448e-06)
(0.52581 0.00339902 4.6193e-06)
(0.54206 0.00326174 3.55635e-06)
(0.553322 0.00135422 1.80974e-06)
(0.403326 -0.010967 -5.626e-05)
(0.403252 -0.00203619 1.59961e-05)
(0.403404 0.00665625 1.53469e-05)
(0.403873 0.0163535 -1.96505e-06)
(0.405318 0.028632 -8.92199e-06)
(0.410052 0.0457721 -7.98647e-06)
(0.424663 0.0695345 3.03755e-05)
(0.460591 0.0933046 6.74263e-05)
(0.407297 -0.0107819 -9.1013e-05)
(0.406834 -0.00204925 -5.30739e-06)
(0.407154 0.00646816 4.2679e-06)
(0.408309 0.0158657 -2.52063e-06)
(0.411093 0.0273606 -6.48736e-06)
(0.417679 0.0422678 -8.15345e-06)
(0.432757 0.0604721 -9.44107e-06)
(0.462111 0.0752818 1.91142e-05)
(0.496698 0.0654029 -1.68969e-05)
(0.521199 0.0397625 -6.13575e-06)
(0.526714 0.00324836 -6.75356e-05)
(0.511513 -0.0259252 -0.000149221)
(0.48441 -0.0377834 0.000488323)
(0.45411 -0.0312923 -2.0439e-05)
(0.429998 -0.00291812 -0.000115952)
(0.419815 0.0350336 1.14912e-06)
(0.424669 0.0869359 5.16293e-05)
(0.463659 0.158797 9.41652e-05)
(0.579229 0.235254 0.000124908)
(0.78119 0.197576 -2.59585e-05)
(0.410962 -0.0103705 -0.000115978)
(0.410292 -0.00204313 -2.17766e-05)
(0.410764 0.00613048 -4.50845e-06)
(0.412464 0.0150245 -4.30274e-06)
(0.416186 0.0255083 -4.90435e-06)
(0.423733 0.0381838 5.10623e-06)
(0.438428 0.0520945 1.90629e-06)
(0.462881 0.0614543 2.25449e-05)
(0.490401 0.0537869 -1.00804e-05)
(0.510148 0.0332936 -1.15481e-05)
(0.515122 0.00541865 -3.75993e-05)
(0.504243 -0.0172158 -5.50212e-05)
(0.483544 -0.0265416 0.000293638)
(0.460119 -0.0203056 8.72305e-05)
(0.442783 0.00289399 1.56797e-05)
(0.437025 0.035958 1.11903e-05)
(0.447275 0.0797231 4.49136e-05)
(0.487756 0.133242 7.48446e-05)
(0.580473 0.175269 8.83384e-05)
(0.710083 0.121211 -1.02576e-05)
(0.414342 -0.00984059 -0.000134167)
(0.413569 -0.00202694 -3.45371e-05)
(0.414165 0.005671 -1.16027e-05)
(0.416276 0.0139155 -6.65558e-06)
(0.420625 0.0232863 -5.14881e-06)
(0.428624 0.0339142 5.89947e-06)
(0.442456 0.0445525 -4.47996e-06)
(0.463059 0.050501 1.04963e-05)
(0.485372 0.0443219 -7.13695e-06)
(0.50154 0.0280764 -1.05299e-05)
(0.506191 0.00669664 -1.85751e-05)
(0.498636 -0.0107706 -1.24538e-05)
(0.483303 -0.0179557 0.000194934)
(0.465505 -0.0121377 0.000123977)
(0.453367 0.00703058 2.94425e-05)
(0.451461 0.0350888 1.69075e-05)
(0.464732 0.0708561 3.92104e-05)
(0.503005 0.109661 6.07475e-05)
(0.575782 0.130875 7.86098e-05)
(0.661101 0.0772958 3.35883e-06)
(0.417454 -0.0092494 -0.000147739)
(0.416625 -0.00200504 -4.44935e-05)
(0.417311 0.00511938 -1.73858e-05)
(0.419706 0.0126164 -9.01202e-06)
(0.424434 0.0208467 -5.96447e-06)
(0.432541 0.0296622 2.80074e-06)
(0.445361 0.0377957 -5.19547e-06)
(0.462953 0.0415893 2.97923e-06)
(0.481357 0.0365382 -4.4053e-06)
(0.494844 0.0237344 -7.80124e-06)
(0.499324 0.00730495 -9.43634e-06)
(0.494309 -0.00609506 -2.34347e-05)
(0.483006 -0.0114673 4.01763e-05)
(0.470353 -0.00627125 7.22955e-05)
(0.462219 0.0096055 3.75186e-05)
(0.463291 0.0329356 1.99349e-05)
(0.477944 0.0614797 3.40211e-05)
(0.512431 0.0890833 5.07429e-05)
(0.569114 0.098295 7.39743e-05)
(0.626758 0.0511788 1.74741e-05)
(0.420318 -0.00862072 -0.000158052)
(0.419436 -0.00197453 -5.23377e-05)
(0.420169 0.00450514 -2.20746e-05)
(0.422739 0.0111936 -1.11227e-05)
(0.427661 0.0183014 -6.53592e-06)
(0.435675 0.0255384 -2.94762e-06)
(0.44746 0.031748 -1.08487e-05)
(0.462693 0.0341789 4.53259e-07)
(0.478179 0.0300407 -5.87376e-07)
(0.489648 0.0200123 -4.53e-06)
(0.494021 0.00740659 -2.78411e-06)
(0.490905 -0.00277675 3.96901e-05)
(0.483204 -0.00670276 7.28211e-05)
(0.474298 -0.00216042 4.62614e-05)
(0.469492 0.0108776 3.86691e-05)
(0.472797 0.0299224 2.12756e-05)
(0.487798 0.0522702 2.96445e-05)
(0.518121 0.0716332 4.23248e-05)
(0.562382 0.074311 6.53312e-05)
(0.60243 0.0350774 2.03634e-05)
(0.422949 -0.00795485 -0.00016599)
(0.421986 -0.00192548 -5.85567e-05)
(0.422716 0.00385581 -2.63135e-05)
(0.425374 0.00970006 -1.27978e-05)
(0.430355 0.0157287 -6.90584e-06)
(0.438127 0.0215991 3.16318e-08)
(0.449011 0.0263309 -4.99902e-06)
(0.462357 0.0278992 -6.55236e-06)
(0.475654 0.0245181 -2.46417e-06)
(0.485638 0.0167321 -2.9361e-06)
(0.489998 0.00711233 8.75242e-07)
(0.488543 -0.000607843 1.86817e-05)
(0.483254 -0.00336516 2.56959e-05)
(0.477561 0.000519304 3.24013e-05)
(0.475395 0.0111026 3.63948e-05)
(0.480313 0.0263738 2.20622e-05)
(0.495067 0.0435745 2.63087e-05)
(0.521469 0.0570102 3.44988e-05)
(0.556434 0.0564258 5.05054e-05)
(0.585203 0.0247465 1.53013e-05)
(0.425359 -0.00723422 -0.000171996)
(0.424262 -0.00184222 -6.35214e-05)
(0.424939 0.00319621 -2.86163e-05)
(0.427614 0.00817561 -1.51034e-05)
(0.432566 0.0131755 -8.17781e-06)
(0.440053 0.0178607 -4.97437e-06)
(0.450127 0.0214456 -2.98233e-06)
(0.462014 0.02246 -4.17401e-06)
(0.473672 0.0197427 -1.61951e-06)
(0.482561 0.0137689 -1.16989e-06)
(0.486949 0.00649646 2.61197e-06)
(0.486728 0.000709792 1.0664e-05)
(0.483531 -0.00120584 2.30939e-05)
(0.480233 0.00206673 2.29535e-05)
(0.480113 0.0105161 3.27441e-05)
(0.486152 0.0225146 2.2078e-05)
(0.500372 0.0355215 2.39877e-05)
(0.523385 0.0447624 2.76568e-05)
(0.551444 0.0428222 3.2898e-05)
(0.57275 0.0178282 8.90343e-06)
(0.427555 -0.00642604 -0.000176651)
(0.426249 -0.00170523 -6.73819e-05)
(0.426826 0.00254723 -3.04459e-05)
(0.429467 0.00664806 -1.59594e-05)
(0.434334 0.0106667 -6.60817e-06)
(0.441547 0.0143195 -4.56288e-06)
(0.450938 0.0169937 -3.12202e-06)
(0.461704 0.0176463 -2.68572e-06)
(0.47214 0.0155226 -1.17358e-06)
(0.480236 0.0110291 -6.47152e-10)
(0.484669 0.00562903 3.42985e-06)
(0.485405 0.00137604 9.71059e-06)
(0.483829 7.9631e-05 1.76148e-05)
(0.482368 0.00274028 1.70153e-05)
(0.483782 0.00931712 2.70791e-05)
(0.490613 0.0184918 4.34322e-05)
(0.504194 0.0281082 2.21771e-05)
(0.524456 0.0344015 2.22432e-05)
(0.547495 0.0322281 2.23654e-05)
(0.563843 0.012998 8.54848e-06)
(0.429539 -0.00548256 -0.000180233)
(0.427931 -0.00149353 -7.03305e-05)
(0.428365 0.00192396 -3.27675e-05)
(0.430943 0.00513465 -1.6737e-05)
(0.435716 0.00821283 -7.71103e-06)
(0.442667 0.0109564 -5.80094e-06)
(0.45152 0.0128844 -2.87198e-06)
(0.461447 0.0132949 -1.94249e-06)
(0.470992 0.0117061 -6.8875e-07)
(0.478525 0.00844426 8.19526e-07)
(0.483007 0.00456794 4.01493e-06)
(0.484464 0.00154601 8.84582e-06)
(0.484104 0.00069841 1.42487e-05)
(0.48402 0.00275431 1.32329e-05)
(0.486583 0.00765011 1.31134e-05)
(0.493831 0.0144074 2.8796e-05)
(0.50689 0.0212586 1.92514e-05)
(0.525065 0.0254726 1.79296e-05)
(0.544703 0.0236606 1.63016e-05)
(0.558023 0.0094129 3.6318e-06)
(0.431304 -0.00433821 -0.000182498)
(0.42928 -0.00118821 -7.25357e-05)
(0.429545 0.00133524 -3.43065e-05)
(0.432049 0.00364423 -1.74549e-05)
(0.436737 0.00581742 -8.77701e-06)
(0.443477 0.00772698 -6.21554e-06)
(0.451926 0.00902813 -2.88447e-06)
(0.461253 0.00927571 -1.60561e-06)
(0.470177 0.00817454 -3.68169e-07)
(0.477325 0.00596481 1.36989e-06)
(0.481852 0.00336257 3.96804e-06)
(0.483823 0.00135149 8.06777e-06)
(0.48433 0.000828726 1.21704e-05)
(0.485218 0.00228815 1.13906e-05)
(0.48858 0.00566801 1.32111e-05)
(0.496142 0.0102831 2.33507e-05)
(0.508729 0.0148612 1.68403e-05)
(0.525431 0.017559 1.50423e-05)
(0.542914 0.0163568 1.25127e-05)
(0.554488 0.00651724 4.09109e-06)
(0.432828 -0.00290284 -0.000184249)
(0.430255 -0.000778502 -7.40273e-05)
(0.430348 0.000782281 -3.53306e-05)
(0.432787 0.002176 -1.79218e-05)
(0.437405 0.00346966 -8.98287e-06)
(0.44401 0.00459555 -5.11628e-06)
(0.452186 0.0053474 -2.84742e-06)
(0.461126 0.00548038 -1.39655e-06)
(0.469656 0.00483238 -6.4794e-08)
(0.476564 0.00355337 1.7706e-06)
(0.481123 0.00205719 4.16041e-06)
(0.483426 0.000907725 7.62678e-06)
(0.484489 0.000625999 1.0912e-05)
(0.485999 0.00149773 1.0751e-05)
(0.489864 0.00347806 1.19369e-05)
(0.497609 0.00616213 1.86348e-05)
(0.509873 0.00878808 1.50489e-05)
(0.525669 0.0103028 1.33254e-05)
(0.542053 0.00973185 1.02681e-05)
(0.552925 0.00394657 4.56156e-06)
(0.434068 -0.00104958 -0.000185169)
(0.430792 -0.000273499 -7.47965e-05)
(0.430757 0.000257155 -3.58335e-05)
(0.433157 0.000723276 -1.80957e-05)
(0.437741 0.00115191 -9.18921e-06)
(0.444278 0.00152461 -4.98326e-06)
(0.452322 0.00177112 -2.6556e-06)
(0.46107 0.0018145 -1.09629e-06)
(0.469405 0.00159914 3.74407e-07)
(0.476196 0.00118048 2.07407e-06)
(0.480772 0.000692938 4.26746e-06)
(0.483237 0.000318583 7.32644e-06)
(0.484571 0.000229731 1.03158e-05)
(0.486383 0.000520054 1.10158e-05)
(0.49049 0.00117164 1.09626e-05)
(0.498319 0.00205143 1.43673e-05)
(0.510422 0.00290727 1.39972e-05)
(0.525809 0.00339838 1.25642e-05)
(0.542057 0.0032611 9.4493e-06)
(0.553316 0.00135142 2.32918e-07)
(0.403338 -0.0109484 8.94832e-06)
(0.403264 -0.00209708 1.88497e-05)
(0.403397 0.00662696 1.35203e-05)
(0.403867 0.0163517 1.79208e-06)
(0.405325 0.028638 -2.37396e-06)
(0.410103 0.0457569 -2.56448e-06)
(0.424711 0.0694312 1.90864e-05)
(0.460592 0.0932638 1.68232e-05)
(0.407315 -0.010743 -1.83611e-05)
(0.406858 -0.00209763 1.04044e-06)
(0.407158 0.0064431 4.10723e-06)
(0.408308 0.0158604 -6.21584e-07)
(0.411098 0.0273615 -2.33509e-06)
(0.41768 0.0422543 -1.85516e-06)
(0.432783 0.0603939 1.07047e-05)
(0.462162 0.0752609 1.04308e-05)
(0.496672 0.0654166 -8.33003e-06)
(0.521154 0.0397618 -1.48576e-05)
(0.526612 0.00329253 -2.54461e-05)
(0.511466 -0.0257723 -1.62318e-05)
(0.484267 -0.0376842 0.000139809)
(0.453419 -0.031009 7.49681e-05)
(0.430165 -0.00269647 2.85672e-05)
(0.419826 0.0350503 4.2776e-05)
(0.424677 0.0869139 7.85206e-05)
(0.463653 0.158762 0.000118463)
(0.579206 0.235222 0.000145258)
(0.781397 0.198094 1.04136e-05)
(0.410985 -0.0103206 -3.92128e-05)
(0.410324 -0.00208128 -1.35119e-05)
(0.410775 0.00610927 -4.0794e-06)
(0.412468 0.0150174 -3.5026e-06)
(0.416192 0.025506 -2.92917e-06)
(0.423744 0.0381694 4.18206e-07)
(0.438437 0.0520544 7.92018e-06)
(0.462866 0.0614402 8.36214e-06)
(0.49038 0.053791 -4.89032e-06)
(0.510117 0.0332973 -1.12564e-05)
(0.515059 0.00545185 -1.45668e-05)
(0.504208 -0.0170939 -1.74693e-06)
(0.483465 -0.0264955 0.000114276)
(0.460046 -0.0200188 6.15239e-05)
(0.442769 0.00308343 5.37918e-05)
(0.437029 0.0359799 4.09084e-05)
(0.447284 0.0797084 6.75624e-05)
(0.487757 0.133218 9.61141e-05)
(0.580429 0.175262 0.000110294)
(0.710119 0.121558 4.7047e-06)
(0.414367 -0.00978577 -5.531e-05)
(0.413606 -0.00205699 -2.53014e-05)
(0.414182 0.00565313 -1.10967e-05)
(0.416283 0.0139078 -6.48341e-06)
(0.420632 0.0232821 -3.93103e-06)
(0.42863 0.0338981 -5.64293e-08)
(0.442461 0.0445242 4.13207e-06)
(0.46305 0.0504867 5.29457e-06)
(0.485356 0.0443223 -2.86898e-06)
(0.50152 0.0280816 -7.65075e-06)
(0.506159 0.00671549 -6.32586e-06)
(0.498644 -0.01069 7.67833e-06)
(0.483464 -0.0179832 7.63117e-05)
(0.465352 -0.0119769 5.41494e-05)
(0.453362 0.00714864 5.29031e-05)
(0.451465 0.0351069 3.8852e-05)
(0.464743 0.0708449 5.79435e-05)
(0.503015 0.109644 7.95945e-05)
(0.575798 0.130888 9.30127e-05)
(0.661232 0.0775398 1.00688e-05)
(0.417481 -0.0091937 -6.79979e-05)
(0.416665 -0.00202878 -3.48216e-05)
(0.417331 0.00510442 -1.70435e-05)
(0.419716 0.0126088 -9.36175e-06)
(0.424441 0.0208417 -5.20691e-06)
(0.432545 0.0296469 -1.12856e-06)
(0.445363 0.0377751 1.70859e-06)
(0.462949 0.0415762 2.7705e-06)
(0.481346 0.0365375 -1.58642e-06)
(0.49483 0.0237395 -4.55953e-06)
(0.499284 0.00731711 -1.89334e-06)
(0.494211 -0.00602451 1.0308e-05)
(0.483082 -0.0114849 5.35053e-05)
(0.470381 -0.00620596 5.02456e-05)
(0.462235 0.00966978 5.01447e-05)
(0.463297 0.0329489 3.65446e-05)
(0.477954 0.06147 4.9924e-05)
(0.512449 0.0890685 6.69991e-05)
(0.569187 0.0982956 8.5479e-05)
(0.626985 0.0513401 2.10511e-05)
(0.420346 -0.00856686 -7.80501e-05)
(0.419479 -0.00199332 -4.24927e-05)
(0.420191 0.0044927 -2.20327e-05)
(0.422751 0.0111865 -1.20016e-05)
(0.427668 0.0182963 -6.53481e-06)
(0.435668 0.0255267 -2.35861e-06)
(0.447478 0.0317384 -5.57961e-07)
(0.462697 0.0341678 9.70566e-07)
(0.478172 0.0300381 -5.4284e-07)
(0.489641 0.0200163 -1.95279e-06)
(0.494012 0.00741587 2.75591e-06)
(0.490953 -0.0027617 2.17952e-05)
(0.483101 -0.00669375 4.11136e-05)
(0.474318 -0.00212065 3.80244e-05)
(0.469509 0.0109088 4.54264e-05)
(0.472805 0.0299332 3.39757e-05)
(0.487808 0.052262 4.3062e-05)
(0.518139 0.0716159 5.58029e-05)
(0.562461 0.0742844 7.34092e-05)
(0.602654 0.0351633 2.80227e-05)
(0.422978 -0.00790494 -8.58389e-05)
(0.422031 -0.0019403 -4.86566e-05)
(0.42274 0.00384573 -2.61674e-05)
(0.425386 0.00969371 -1.43108e-05)
(0.430363 0.0157241 -7.71255e-06)
(0.438131 0.0215924 -3.05947e-06)
(0.449012 0.0263261 -1.29041e-06)
(0.462356 0.0278921 -5.13499e-07)
(0.475652 0.0245143 -1.68143e-07)
(0.485635 0.0167345 -6.16736e-08)
(0.489995 0.00711488 5.22646e-06)
(0.488544 -0.000603886 1.66723e-05)
(0.483251 -0.00337728 2.85443e-05)
(0.477583 0.000538735 3.15372e-05)
(0.475409 0.0111145 4.03941e-05)
(0.480326 0.0263872 3.13622e-05)
(0.495076 0.0435677 3.71088e-05)
(0.521482 0.0569923 4.52996e-05)
(0.55647 0.0563812 5.43635e-05)
(0.585307 0.0247774 1.76061e-05)
(0.425388 -0.00718988 -9.21048e-05)
(0.424308 -0.0018538 -5.35599e-05)
(0.424964 0.00318824 -2.94662e-05)
(0.427628 0.00817028 -1.6317e-05)
(0.432574 0.0131716 -8.83564e-06)
(0.440057 0.017855 -4.34106e-06)
(0.450128 0.0214423 -1.95087e-06)
(0.462013 0.0224569 -8.48795e-07)
(0.473672 0.0197395 2.30941e-07)
(0.482561 0.0137703 1.30271e-06)
(0.486947 0.00649561 6.34794e-06)
(0.486731 0.000710318 1.4022e-05)
(0.483534 -0.00121387 2.44731e-05)
(0.480252 0.00207579 2.65131e-05)
(0.480124 0.0105187 3.53881e-05)
(0.486168 0.0225315 2.88616e-05)
(0.500382 0.0355177 3.22606e-05)
(0.523391 0.0447465 3.65805e-05)
(0.551435 0.0427847 3.79204e-05)
(0.572739 0.0178339 6.58865e-06)
(0.427585 -0.00638841 -9.69503e-05)
(0.426296 -0.00171413 -5.74083e-05)
(0.426852 0.00254084 -3.21055e-05)
(0.429481 0.00664376 -1.79139e-05)
(0.434344 0.0106629 -9.68891e-06)
(0.441546 0.014314 -5.06886e-06)
(0.450939 0.0169911 -2.37737e-06)
(0.461704 0.0176443 -8.3733e-07)
(0.47214 0.0155206 5.86021e-07)
(0.480237 0.0110298 2.26473e-06)
(0.484669 0.00562695 6.82404e-06)
(0.485408 0.00137452 1.29404e-05)
(0.483833 7.34091e-05 2.06416e-05)
(0.482388 0.00274297 2.30346e-05)
(0.48382 0.00930593 2.86611e-05)
(0.490587 0.0185041 3.00925e-05)
(0.504198 0.0281036 2.8706e-05)
(0.524459 0.0343886 2.9819e-05)
(0.547486 0.0322052 2.73872e-05)
(0.563827 0.0129985 4.89582e-06)
(0.429569 -0.0054525 -0.000100654)
(0.427979 -0.00150018 -6.03477e-05)
(0.428392 0.00191899 -3.42062e-05)
(0.430957 0.00513122 -1.91914e-05)
(0.435722 0.00820862 -1.04598e-05)
(0.442672 0.0109523 -5.59109e-06)
(0.451522 0.0128825 -2.66614e-06)
(0.461448 0.0132934 -8.07554e-07)
(0.470993 0.0117048 8.55229e-07)
(0.478526 0.00844453 2.88364e-06)
(0.483009 0.00456565 6.97583e-06)
(0.484467 0.00154365 1.20868e-05)
(0.484108 0.000693474 1.80224e-05)
(0.484033 0.00275298 2.05305e-05)
(0.486609 0.00763887 2.35965e-05)
(0.49386 0.0143943 2.83986e-05)
(0.506897 0.0212539 2.51092e-05)
(0.525065 0.0254629 2.48167e-05)
(0.544696 0.0236465 2.07164e-05)
(0.55801 0.00941562 6.62083e-06)
(0.431334 -0.00431617 -0.000103116)
(0.429328 -0.00119283 -6.24882e-05)
(0.429572 0.00133174 -3.57541e-05)
(0.432063 0.00364183 -2.01401e-05)
(0.436743 0.00581435 -1.10406e-05)
(0.443484 0.00772534 -6.03008e-06)
(0.451928 0.00902689 -2.88154e-06)
(0.461254 0.00927471 -8.01254e-07)
(0.470178 0.00817377 1.05556e-06)
(0.477327 0.00596485 3.28296e-06)
(0.481854 0.00336068 6.95983e-06)
(0.483827 0.00134925 1.14301e-05)
(0.484334 0.000825023 1.62923e-05)
(0.485228 0.00228573 1.89838e-05)
(0.488598 0.00565609 2.24842e-05)
(0.496163 0.0102678 2.58321e-05)
(0.508732 0.0148576 2.25945e-05)
(0.52543 0.0175527 2.12898e-05)
(0.542906 0.0163484 1.64144e-05)
(0.554464 0.00652924 8.38979e-06)
(0.432858 -0.0028893 -0.000104762)
(0.430303 -0.000781215 -6.38893e-05)
(0.430375 0.000780208 -3.67693e-05)
(0.432801 0.00217461 -2.0749e-05)
(0.437413 0.00346831 -1.14091e-05)
(0.444013 0.00459482 -6.18956e-06)
(0.452188 0.00534678 -2.9791e-06)
(0.461128 0.00547983 -7.67422e-07)
(0.469657 0.00483201 1.19172e-06)
(0.476566 0.00355337 3.51353e-06)
(0.481125 0.00205596 6.91772e-06)
(0.48343 0.000906214 1.10036e-05)
(0.484493 0.000623677 1.52098e-05)
(0.486005 0.00149596 1.80639e-05)
(0.489874 0.00346909 2.11528e-05)
(0.497624 0.00614926 2.35743e-05)
(0.509874 0.00878599 2.10925e-05)
(0.525666 0.0102993 1.91745e-05)
(0.542046 0.00972763 1.42871e-05)
(0.552917 0.00396524 3.12857e-07)
(0.434098 -0.00104504 -0.000105653)
(0.430841 -0.000274395 -6.45841e-05)
(0.430784 0.00025647 -3.72722e-05)
(0.433171 0.000722815 -2.10551e-05)
(0.437749 0.00115147 -1.16155e-05)
(0.444282 0.00152436 -6.27492e-06)
(0.452325 0.00177093 -3.01375e-06)
(0.461072 0.00181434 -7.46159e-07)
(0.469407 0.00159905 1.29649e-06)
(0.476199 0.0011805 3.64183e-06)
(0.480774 0.000692604 6.8941e-06)
(0.48324 0.000318057 1.0752e-05)
(0.484575 0.000228969 1.46862e-05)
(0.486387 0.000519834 1.76975e-05)
(0.490498 0.00116817 2.0335e-05)
(0.498332 0.00204512 2.19384e-05)
(0.510421 0.00290599 2.02343e-05)
(0.525806 0.00339726 1.81168e-05)
(0.542051 0.00325981 1.29665e-05)
(0.553323 0.0013607 1.83562e-06)
(0.403334 -0.0110073 1.85005e-05)
(0.403258 -0.00213455 1.57582e-05)
(0.403385 0.00660709 1.06828e-05)
(0.403855 0.0163461 4.15961e-06)
(0.405317 0.0286396 1.36988e-06)
(0.410098 0.0457622 2.60743e-06)
(0.424704 0.0694409 7.82085e-06)
(0.460584 0.0932846 7.55056e-06)
(0.407316 -0.0107928 3.33103e-06)
(0.406858 -0.00213027 4.67118e-06)
(0.407152 0.00642487 4.12627e-06)
(0.408301 0.0158543 1.3136e-06)
(0.411093 0.0273623 3.59923e-07)
(0.417677 0.0422595 2.20742e-06)
(0.43278 0.0604003 6.0859e-06)
(0.462157 0.0752752 5.73873e-06)
(0.496673 0.0654308 -6.95059e-07)
(0.521162 0.039774 -4.54295e-06)
(0.52663 0.00330665 -4.70239e-06)
(0.511511 -0.0257618 9.01998e-06)
(0.484282 -0.0377223 5.48995e-05)
(0.453372 -0.0310471 5.81189e-05)
(0.430126 -0.00269418 5.06267e-05)
(0.419816 0.0350334 6.19434e-05)
(0.424676 0.0868853 8.61301e-05)
(0.463639 0.158726 0.000119086)
(0.579153 0.235192 0.000147722)
(0.781433 0.198435 5.46314e-05)
(0.410988 -0.0103618 -9.60511e-06)
(0.41033 -0.00210909 -5.0986e-06)
(0.410775 0.00609297 -1.95113e-06)
(0.412465 0.0150111 -1.66012e-06)
(0.41619 0.0255059 -1.09655e-06)
(0.423743 0.0381732 9.91656e-07)
(0.438436 0.0520592 4.08802e-06)
(0.462863 0.0614495 4.55209e-06)
(0.490382 0.0538027 1.73248e-07)
(0.510125 0.0333081 -2.32979e-06)
(0.515076 0.00546372 -5.89788e-07)
(0.504245 -0.0170882 1.24868e-05)
(0.483475 -0.0265357 4.83603e-05)
(0.460015 -0.0200452 5.21059e-05)
(0.44274 0.00308772 4.88526e-05)
(0.437021 0.0359679 5.64197e-05)
(0.447283 0.0796865 7.51478e-05)
(0.487752 0.133193 9.87773e-05)
(0.580391 0.175247 0.000114724)
(0.710135 0.121799 3.27937e-05)
(0.414372 -0.00981941 -2.05536e-05)
(0.413615 -0.00208033 -1.35235e-05)
(0.414186 0.00563882 -7.42607e-06)
(0.416284 0.0139016 -4.57183e-06)
(0.420632 0.0232812 -2.54543e-06)
(0.42863 0.0339002 -4.46699e-08)
(0.442461 0.0445268 2.60778e-06)
(0.463049 0.0504921 3.35446e-06)
(0.485358 0.0443311 6.97769e-07)
(0.501527 0.0280907 -4.78954e-07)
(0.506174 0.00672446 2.64037e-06)
(0.498673 -0.0106874 1.52358e-05)
(0.48348 -0.0180222 4.32693e-05)
(0.465339 -0.0119931 4.68536e-05)
(0.453344 0.00714898 4.62273e-05)
(0.451459 0.035097 5.12836e-05)
(0.464745 0.0708273 6.50073e-05)
(0.503017 0.109625 8.17313e-05)
(0.575771 0.130883 8.92235e-05)
(0.661236 0.0777103 1.92917e-05)
(0.417488 -0.00922089 -2.97525e-05)
(0.416678 -0.00204815 -2.06879e-05)
(0.417339 0.00509206 -1.22658e-05)
(0.419719 0.0126028 -7.32817e-06)
(0.424443 0.0208401 -4.03876e-06)
(0.432547 0.0296476 -1.10992e-06)
(0.445363 0.0377764 1.27876e-06)
(0.462949 0.0415792 2.19839e-06)
(0.481348 0.0365439 1.07059e-06)
(0.494836 0.0237467 1.03191e-06)
(0.499296 0.00732382 4.96534e-06)
(0.494232 -0.00602261 1.60915e-05)
(0.483095 -0.0115122 3.59161e-05)
(0.470374 -0.00622226 3.98738e-05)
(0.462224 0.00966693 4.27913e-05)
(0.463293 0.0329398 4.63353e-05)
(0.477958 0.061455 5.59752e-05)
(0.512455 0.0890505 6.82302e-05)
(0.569212 0.098287 7.36266e-05)
(0.627107 0.0514465 1.74176e-05)
(0.420354 -0.00858866 -3.75069e-05)
(0.419494 -0.00200926 -2.67027e-05)
(0.420201 0.00448217 -1.64581e-05)
(0.422756 0.011181 -9.85672e-06)
(0.427671 0.0182944 -5.52484e-06)
(0.435671 0.0255265 -2.2516e-06)
(0.44748 0.031739 1.3512e-07)
(0.462698 0.0341695 1.26867e-06)
(0.478173 0.0300426 1.28071e-06)
(0.489646 0.0200218 2.23551e-06)
(0.494023 0.00742064 6.62159e-06)
(0.49097 -0.00276254 1.64558e-05)
(0.48311 -0.00671343 3.09453e-05)
(0.474317 -0.0021354 3.61237e-05)
(0.469503 0.0109041 3.90521e-05)
(0.472804 0.029925 4.16908e-05)
(0.487812 0.0522486 4.82159e-05)
(0.518146 0.0715964 5.63176e-05)
(0.562488 0.0742571 5.89182e-05)
(0.602735 0.0352231 2.17932e-05)
(0.422987 -0.00792223 -4.3643e-05)
(0.422048 -0.00195328 -3.16969e-05)
(0.422753 0.00383692 -2.00287e-05)
(0.425394 0.00968882 -1.21039e-05)
(0.430367 0.015722 -6.88632e-06)
(0.438134 0.0215917 -3.19746e-06)
(0.449014 0.0263263 -6.97566e-07)
(0.462358 0.0278932 8.19472e-07)
(0.475655 0.0245172 1.64135e-06)
(0.48564 0.0167385 3.15787e-06)
(0.490003 0.00711777 7.63049e-06)
(0.488556 -0.000607185 1.59177e-05)
(0.483258 -0.00339136 2.65321e-05)
(0.477585 0.000527245 3.17711e-05)