# vtk DataFile Version 2.0
tracks
ASCII
DATASET POLYDATA
POINTS 10120 float
-1.001 -0.05 0.0011 -0.652408 -0.0357021 0.961694 -0.30388 -0.021078 1.92231 0.0446027 -0.00619174
2.88293 0.393049 0.00891957 3.84357 0.741962 0.0242605 4.8056 0.937379 0.0329332 5.34447
1.13277 0.0416526 5.88335 1.32813 0.0504188 6.42224 1.52346 0.0592317 6.96114 1.71872
0.0681113 7.49996 2.26224 0.0931247 8.99994 2.80539 0.118269 10.5 3.34824 0.143721
12.0003 3.89073 0.169466 13.5006 4.43238 0.195624 14.9998 4.97386 0.222263 16.4999
5.51508 0.249134 17.9999 6.05601 0.27629 19.5001 6.59665 0.303934 21.0004 7.13662
0.332048 22.4999 7.30688 0.341136 22.9729 7.47711 0.350224 23.446 7.64732 0.359345
23.9191 7.81749 0.368518 24.3922 7.98793 0.377757 24.8661 8.35711 0.397885 25.8929
8.7261 0.418298 26.9197 9.0949 0.438986 27.9466 9.4635 0.45995 28.9735 9.8317
0.481158 29.9999 10.3696 0.512481 31.4999 10.907 0.544441 33.0001 11.444 0.577031
34.5004 11.9807 0.610185 36.0008 12.5164 0.643633 37.5 13.0518 0.677366 39
13.587 0.711966 40.5001 14.1219 0.747184 42.0003 14.6563 0.782872 43.5006 15.19
0.81901 45 15.2001 0.819701 45.0283 15.2102 0.820393 45.0566 15.2203 0.821085
45.0849 15.2303 0.821776 45.1133 15.2404 0.822469 45.1416 15.7637 0.858446 46.6133
16.2866 0.894968 48.0851 16.809 0.932034 49.5571 17.3308 0.969641 51.0293 17.8516
1.00805 52.5 18.3823 1.04865 54 18.9124 1.08938 55.5002 19.442 1.1309
57.0005 19.9711 1.17328 58.501 20.4991 1.21646 60 20.8982 1.25003 61.1347
21.2972 1.28384 62.2695 21.6959 1.31813 63.4043 22.0942 1.35294 64.5392 22.4947
1.38854 65.6813 22.6222 1.40006 66.045 22.7496 1.41164 66.4088 22.8769 1.42329
66.7725 23.0043 1.43501 67.1363 23.1315 1.44678 67.5 23.6559 1.49555 69
24.1799 1.54555 70.5001 24.7033 1.59669 72.0004 25.226 1.64898 73.5008 25.7477
1.70236 75 25.8289 1.71086 75.2337 25.9101 1.71939 75.4675 25.9913 1.72795
75.7012 26.0725 1.73653 75.935 26.1509 1.74485 76.1607 26.591 1.7917 77.4286
27.0308 1.83932 78.6965 27.4701 1.8877 79.9646 27.909 1.93684 81.2328 28.347
1.98669 82.5 28.6267 2.01919 83.3096 28.9061 2.05183 84.1192 29.1854 2.08478
84.9289 29.4645 2.11811 85.7386 29.7455 2.15209 86.554 29.9828 2.18117 87.2432
30.2201 2.21057 87.9324 30.4573 2.24029 88.6217 30.6943 2.27034 89.3109 30.9312
2.30078 90 31.4467 2.3684 91.5 31.9616 2.43681 93.0002 32.476 2.50683
94.5004 32.9897 2.57847 96.0009 33.502 2.65184 97.5 34.0131 2.72736 99
34.5242 2.80411 100.5 35.0352 2.8823 102 35.5455 2.9626 103.5 36.0553
3.04503 105 36.239 3.07577 105.541 36.4227 3.1066 106.082 36.6062 3.13766
106.624 36.7897 3.16899 107.165 36.9739 3.20074 107.708 37.2985 3.2572 108.667
37.6227 3.31452 109.625 37.9466 3.37263 110.584 38.27 3.43153 111.542 38.593
3.49134 112.5 39.0991 3.58704 114 39.604 3.68436 115.5 40.1079 3.78358
117.001 40.6118 3.88547 118.501 41.1145 3.98999 120 41.6171 4.09775 121.5
42.1194 4.2071 123 42.6217 4.31904 124.5 43.124 4.43357 125.999 43.6267
4.55078 127.5 43.7 4.56826 127.719 43.7732 4.58578 127.938 43.8465 4.60336
128.156 43.9197 4.62099 128.375 43.991 4.6382 128.588 44.4203 4.74217 129.87
44.8494 4.84834 131.153 45.2787 4.95756 132.435 45.7082 5.06985 133.716 46.1388
5.18544 135 47.1511 5.46555 138 48.1626 5.76054 140.999 49.1763 6.07468
143.995 50.1981 6.41029 146.986 51.239 6.76867 150 51.2408 6.76934 150.005
51.2427 6.77002 150.011 51.2446 6.77069 150.016 51.2465 6.77137 150.022 51.2483
6.77204 150.027 51.6232 6.90695 151.101 51.9995 7.04417 152.174 52.3774 7.18371
153.247 52.7568 7.32622 154.318 53.0718 7.44666 155.203 53.2363 7.51044 155.662
53.4008 7.57447 156.122 53.5655 7.63875 156.581 53.7303 7.70329 157.04 53.8959
7.76823 157.5 54.4386 7.9811 159 54.9801 8.19531 160.5 55.5228 8.41243
162 56.067 8.6302 163.498 56.6182 8.85153 165 56.9718 8.99425 165.95
57.3261 9.13661 166.899 57.682 9.2794 167.848 58.0399 9.42317 168.796 58.3865
9.56247 169.707 58.6004 9.64848 170.266 58.8152 9.73471 170.824 59.0308 9.82126
171.382 59.2475 9.90819 171.939 59.4662 9.99598 172.5 59.7223 10.099 173.152
59.9808 10.2026 173.804 60.2408 10.3064 174.455 60.5027 10.411 175.105 60.7535
10.5112 175.722 61.1043 10.6515 176.577 61.4568 10.7925 177.432 61.8112 10.9341
178.286 62.1668 11.076 179.14 62.528 11.2201 180 63.1557 11.4721 181.475
63.786 11.7238 182.95 64.4251 11.9752 184.42 65.0765 12.2283 185.885 65.6661
12.4545 187.19 65.6945 12.4652 187.252 65.7228 12.476 187.314 65.7512 12.4867
187.376 65.7796 12.4975 187.438 65.808 12.5082 187.5 66.1517 12.6373 188.25
66.4964 12.7676 188.999 66.8426 12.8982 189.748 67.1901 13.0292 190.496 67.5439
13.1571 191.25 67.8069 13.2466 191.804 68.0698 13.3374 192.358 68.3334 13.4272
192.911 68.5985 13.5152 193.465 68.8754 13.6048 194.039 68.9687 13.6342 194.231
69.0622 13.6635 194.423 69.1558 13.6928 194.615 69.2496 13.722 194.807 69.3438
13.7512 195 70.0795 13.976 196.5 70.8211 14.1882 197.999 71.57 14.3865
199.496 72.3263 14.5733 200.991 73.0773 14.7495 202.463 73.0811 14.7504 202.471
73.0848 14.7512 202.478 73.0886 14.7521 202.485 73.0924 14.7529 202.493 73.0961
14.7537 202.5 73.8677 14.9253 204 74.6433 15.0903 205.499 75.423 15.2488
206.996 76.207 15.4008 208.492 76.9966 15.5499 210 77.6805 15.6765 211.312
78.3693 15.7974 212.621 79.0614 15.9131 213.93 79.7526 16.025 215.239 80.4165
16.1289 216.499 80.5218 16.1449 216.699 80.6271 16.1608 216.9 80.7324 16.1766
217.1 80.8377 16.1924 217.3 80.9429 16.2081 217.5 81.7309 16.3252 219
82.52 16.4399 220.5 83.3097 16.5523 221.999 84.1 16.6626 223.498 84.8926
16.7708 225 85.0337 16.7897 225.267 85.1749 16.8085 225.535 85.3161 16.8272
225.802 85.4573 16.8459 226.069 85.6063 16.8655 226.351 86.0133 16.9188 227.121
86.4205 16.9715 227.89 86.8279 17.0234 228.66 87.2355 17.0747 229.429 87.6413
17.1249 230.195 87.8857 17.1549 230.656 88.1303 17.1846 231.117 88.3749 17.2142
231.578 88.6196 17.2435 232.039 88.8645 17.2724 232.5 89.662 17.3645 234
90.461 17.4573 235.499 91.2615 17.5483 236.998 92.0637 17.6377 238.495 92.8734
17.7222 240 93.2766 17.7613 240.747 93.6808 17.799 241.494 94.0857 17.8354
242.241 94.4915 17.8707 242.987 94.8896 17.9041 243.717 95.3028 17.9375 244.474
95.7165 17.9684 245.23 96.1304 17.9969 245.987 96.5444 18.0228 246.743 96.9607
18.0468 247.5 97.7902 18.0911 249 98.62 18.1258 250.5 99.4504 18.1513
252 100.28 18.1668 253.501 101.109 18.1766 255 101.345 18.1778 255.426
101.581 18.1785 255.852 101.816 18.1788 256.278 102.052 18.1786 256.704 102.287
18.1778 257.128 102.884 18.1745 258.202 103.479 18.1692 259.277 104.074 18.1618
260.353 104.666 18.1527 261.43 105.254 18.1397 262.5 106.076 18.1161 264
106.896 18.0899 265.501 107.711 18.0629 267.004 108.523 18.031 268.51 109.323
17.9945 270 109.378 17.9916 270.104 109.433 17.9887 270.207 109.489 17.9858
270.311 109.544 17.9828 270.415 109.6 17.9798 270.519 110.344 17.9395 271.915
111.084 17.896 273.313 111.821 17.8495 274.713 112.553 17.8001 276.116 113.273
17.7473 277.5 113.967 17.6977 278.839 114.657 17.646 280.181 115.344 17.5913
281.523 116.029 17.5354 282.867 116.74 17.4757 284.266 116.815 17.4693 284.413
116.889 17.463 284.56 116.963 17.4566 284.707 117.038 17.4502 284.853 117.112
17.4438 285 117.87 17.3787 286.5 118.627 17.3144 288.001 119.381 17.2507
289.503 120.134 17.1877 291.006 120.879 17.1235 292.5 121.516 17.0674 293.783
122.152 17.0132 295.068 122.785 16.9601 296.353 123.417 16.9065 297.639 124.066
16.8506 298.962 124.167 16.8418 299.17 124.269 16.8329 299.377 124.37 16.824
299.585 124.471 16.8151 299.793 124.573 16.8062 -1.10682e-05 125.304 16.7416 1.50001
126.034 16.6764 3.00089 126.763 16.6099 4.50233 127.49 16.5428 6.00437 128.213
16.4751 7.5001 128.795 16.4195 8.70557 129.376 16.3634 9.91126 129.956 16.3066
11.1173 130.536 16.249 12.3238 131.079 16.1942 13.4565 131.123 16.1897 13.5486
131.167 16.1852 13.6407 131.211 16.1806 13.7328 131.255 16.1761 13.825 131.299
16.1716 13.9172 131.403 16.1609 14.1339 131.507 16.1502 14.3506 131.61 16.1395
14.5673 131.714 16.1288 14.784 131.817 16.118 15.0006 132.533 16.0439 16.5005
133.248 15.9686 18.0009 133.961 15.8926 19.5021 134.673 15.8159 21.0039 135.381
15.7387 22.5001 136.082 15.6616 23.9861 136.782 15.5831 25.4725 137.481 15.5038
26.9594 138.178 15.4245 28.4473 138.887 15.3434 29.9647 138.89 15.343 29.9717
138.893 15.3427 29.9788 138.897 15.3423 29.9859 138.9 15.3419 29.9929 138.903
15.3415 30 140.278 15.1834 33 141.662 15.0252 35.9957 143.038 14.8683
38.9953 144.404 14.7136 41.9995 145.755 14.5587 45 147.091 14.401 48
148.427 14.2455 51 149.761 14.093 54.0011 151.086 13.942 57.0065 152.394
13.7933 60 152.546 13.776 60.3524 152.698 13.7587 60.7048 152.851 13.7414
61.0571 153.003 13.7242 61.4096 153.156 13.7069 61.7632 154.297 13.5778 64.4106
155.438 13.4492 67.058 156.579 13.321 69.7054 157.721 13.1931 72.3526 158.856
13.0659 75 160.127 12.9228 78 161.406 12.7809 80.997 162.689 12.6402
83.992 163.97 12.5011 86.9881 165.248 12.3631 90 165.699 12.3145 91.0736
166.151 12.2661 92.1469 166.603 12.218 93.2202 167.054 12.17 94.2938 167.503
12.1225 95.3646 168.31 12.0373 97.2917 169.117 11.9526 99.2189 169.923 11.8684
101.146 170.729 11.7847 103.074 171.533 11.7016 105 172.779 11.5731 108
174.027 11.4467 111 175.272 11.3222 114 176.515 11.1995 117.001 177.754
11.0785 120 178.615 10.9951 122.088 179.475 10.9129 124.176 180.335 10.8315
126.265 181.192 10.751 128.354 182.058 10.6704 130.466 182.197 10.6576 130.806
182.337 10.6448 131.146 182.476 10.632 131.486 182.615 10.6193 131.826 182.755
10.6065 132.168 182.987 10.5853 132.735 183.219 10.5641 133.301 183.45 10.5431
133.867 183.682 10.522 134.434 183.914 10.501 135 184.526 10.4455 136.5
185.139 10.3903 138 185.752 10.3355 139.5 186.363 10.281 141 186.974
10.2267 142.5 187.435 10.186 143.638 187.898 10.1453 144.776 188.361 10.1048
145.913 188.823 10.0645 147.051 189.28 10.0247 148.182 189.427 10.0119 148.545
189.573 9.99919 148.909 189.72 9.98648 149.273 189.867 9.97379 149.636 190.014
9.96112 150 190.617 9.90909 151.5 191.224 9.85724 152.999 191.832 9.80577
154.497 192.44 9.75478 155.995 193.048 9.70387 157.5 193.65 9.65336 159
[...]
POINT_DATA 10120
FIELD attributes 4
age 1 10120 float
0 0.0480138 0.0960144 0.144015 0.192022 0.240106 0.267044 0.293984 0.320924 0.347865 0.374804
0.449807 0.524782 0.599746 0.674694 0.749612 0.824601 0.899554 0.974479 1.04942 1.12431
1.14795 1.17159 1.19522 1.21886 1.24254 1.29384 1.34514 1.39643 1.44773 1.49899
1.57393 1.64886 1.72376 1.79867 1.87355 1.94851 2.02343 2.09834 2.17328 2.24818
2.24959 2.25101 2.25242 2.25384 2.25525 2.32878 2.4023 2.47582 2.54934 2.62279
2.69773 2.77265 2.84757 2.9225 2.99736 3.05405 3.11072 3.16739 3.22407 3.28111
3.29928 3.31745 3.33562 3.35379 3.37195 3.44691 3.52183 3.59677 3.67172 3.74661
3.75828 3.76996 3.78164 3.79332 3.80459 3.86794 3.93128 3.99464 4.058 4.12131
4.16177 4.20222 4.24267 4.28313 4.32387 4.35831 4.39275 4.42719 4.46163 4.49606
4.57103 4.64598 4.72093 4.79589 4.87082 4.94588 5.02087 5.09582 5.17079 5.2458
5.27287 5.29994 5.32701 5.35409 5.38128 5.42922 5.47717 5.52513 5.57309 5.62104
5.69614 5.77121 5.84626 5.92129 5.9963 6.07151 6.14657 6.22161 6.29663 6.37169
6.38263 6.39357 6.40452 6.41546 6.42611 6.49025 6.55443 6.61868 6.68298 6.74747
6.89811 7.04915 7.20046 7.3516 7.50382 7.5041 7.50437 7.50464 7.50491 7.50518
7.55941 7.61357 7.66765 7.72171 7.76638 7.78959 7.8128 7.836 7.85919 7.88242
7.95821 8.03389 8.1095 8.18498 8.26068 8.30865 8.3565 8.40428 8.45202 8.49792
8.52606 8.55418 8.58227 8.61035 8.63863 8.67164 8.70451 8.73732 8.77011 8.80126
8.84448 8.88765 8.93076 8.97383 9.01727 9.09198 9.16643 9.24059 9.31452 9.38039
9.38352 9.38665 9.38978 9.39291 9.39604 9.4339 9.47172 9.50949 9.54722 9.58527
9.61322 9.64115 9.66905 9.69694 9.7259 9.7356 9.74529 9.75499 9.76468 9.7744
9.85014 9.92572 10.0012 10.0766 10.1509 10.1513 10.1517 10.152 10.1524 10.1528
10.2285 10.3041 10.3796 10.455 10.531 10.5971 10.6631 10.729 10.795 10.8586
10.8687 10.8788 10.8889 10.899 10.9091 10.9848 11.0604 11.1359 11.2114 11.2871
11.3006 11.3141 11.3276 11.341 11.3552 11.3941 11.4329 11.4717 11.5106 11.5492
11.5725 11.5958 11.619 11.6423 11.6655 11.7411 11.8167 11.8923 11.9678 12.0437
12.0815 12.1192 12.1568 12.1945 12.2314 12.2696 12.3078 12.346 12.3841 12.4223
12.4982 12.5739 12.6494 12.7249 12.8005 12.822 12.8435 12.865 12.8865 12.9079
12.9622 13.0165 13.0708 13.1251 13.1791 13.255 13.3307 13.4063 13.4821 13.5573
13.5625 13.5677 13.573 13.5782 13.5835 13.6539 13.7245 13.795 13.8655 13.9353
14.0028 14.0704 14.1379 14.2055 14.2759 14.2833 14.2907 14.2981 14.3055 14.3129
14.3884 14.464 14.5396 14.6153 14.6906 14.7554 14.82 14.8847 14.9494 15.016
15.0265 15.0369 15.0474 15.0579 15.0683 15.144 15.2195 15.2951 15.3707 15.446
15.5067 15.5674 15.6282 15.689 15.7462 15.7508 15.7555 15.7601 15.7648 15.7694
15.7804 15.7913 15.8023 15.8132 15.8242 15.9001 15.9759 16.0516 16.1274 16.203
16.2785 16.3536 16.4287 16.504 16.581 16.5814 16.5818 16.5821 16.5825 16.5828
16.737 16.8892 17.0415 17.1937 17.3471 17.5033 17.6575 17.8102 17.9639 18.1178
18.136 18.1543 18.1725 18.1907 18.209 18.3462 18.4829 18.6192 18.7551 18.8916
19.0478 19.2021 19.3549 19.5077 19.6621 19.7176 19.7729 19.8281 19.8834 19.9386
20.038 20.1373 20.2364 20.3354 20.4345 20.5893 20.7435 20.8976 21.0518 21.206
21.3135 21.4208 21.5281 21.6357 21.7445 21.7619 21.7794 21.7969 21.8144 21.832
21.8611 21.8903 21.9193 21.9484 21.9775 22.0547 22.1318 22.2088 22.2859 22.3631
22.4217 22.4802 22.5387 22.5973 22.6555 22.6743 22.6931 22.7119 22.7306 22.7494
22.8269 22.904 22.9809 23.0578 23.1351 23.2126 23.2897 23.3666 23.4437 23.5211
23.5329 23.5448 23.5566 23.5684 23.5802 23.7235 23.8668 24.0102 24.1534 24.297
24.4541 24.6098 24.7649 24.9202 25.0783 25.1643 25.2492 25.3333 25.4174 25.4916
25.5653 25.6391 25.713 25.7869 25.8608 25.9388 26.017 26.0952 26.1734 26.2516
26.2923 26.3331 26.3739 26.4147 26.4555 26.4928 26.5301 26.5675 26.6048 26.6421
26.6688 26.6955 26.7222 26.7489 26.7754 26.8268 26.8783 26.9297 26.9811 27.0326
27.1103 27.1879 27.2656 27.3432 27.4205 27.421 27.4215 27.422 27.4225 27.423
27.5794 27.7358 27.8923 28.0487 28.2052 28.3633 28.5204 28.6765 28.8326 28.9908
29.0687 29.1462 29.2235 29.3008 29.3754 0 0.0480117 0.0960103 0.144009 0.192015
0.240097 0.266512 0.292927 0.319342 0.345758 0.372172 0.447176 0.52215 0.597115 0.672063
0.746981 0.82197 0.896923 0.971848 1.04678 1.12168 1.14584 1.17001 1.19417 1.21833
1.24254 1.29331 1.34408 1.39485 1.44562 1.49636 1.5713 1.64622 1.72113 1.79604
1.87092 1.94588 2.02079 2.09571 2.17064 2.24555 2.24749 2.24943 2.25137 2.25331
2.25525 2.32825 2.40125 2.47424 2.54723 2.62016 2.6951 2.77001 2.84494 2.91987
2.99473 3.05194 3.10914 3.16633 3.22354 3.28111 3.29875 3.3164 3.33404 3.35168
3.36932 3.44428 3.5192 3.59413 3.66908 3.74397 3.75617 3.76836 3.78055 3.79275
3.8045 3.86734 3.93018 3.99302 4.05588 4.11868 4.15966 4.20063 4.24161 4.28259
4.32387 4.35779 4.3917 4.42561 4.45952 4.49343 4.5684 4.64334 4.71829 4.79326
4.86819 4.94324 5.01823 5.09318 5.16816 5.24316 5.27076 5.29836 5.32596 5.35356
5.38128 5.42869 5.47611 5.52354 5.57098 5.6184 5.6935 5.76857 5.84362 5.91865
5.99367 6.06887 6.14393 6.21897 6.29399 6.36905 6.38052 6.39198 6.40344 6.41491
6.42605 6.48968 6.55335 6.61707 6.68085 6.74482 6.89546 7.04649 7.1978 7.34894
7.50116 7.50196 7.50276 7.50357 7.50437 7.50517 7.55938 7.61351 7.66758 7.72162
7.76626 7.78897 7.81167 7.83435 7.85704 7.87976 7.95555 8.03123 8.10684 8.18232
8.25803 8.30654 8.35493 8.40324 8.45152 8.49792 8.52553 8.55311 8.58068 8.60823
8.63598 8.6695 8.70289 8.73621 8.76951 8.80114 8.84385 8.88652 8.92913 8.97168
9.01461 9.08988 9.16489 9.2396 9.31409 9.38041 9.383 9.3856 9.38819 9.39078
9.39337 9.43124 9.46905 9.50683 9.54456 9.58261 9.61108 9.63952 9.66794 9.69634
9.72585 9.73503 9.7442 9.75337 9.76254 9.77173 9.84747 9.92305 9.99854 10.074
10.1501 10.1503 10.1504 10.1506 10.1508 10.151 10.2265 10.3019 10.3773 10.4525
10.5283 10.595 10.6615 10.728 10.7946 10.8586 10.8682 10.8777 10.8873 10.8968
10.9064 10.9821 11.0577 11.1332 11.2088 11.2845 11.2984 11.3123 11.3262 11.3401
11.3548 11.3938 11.4327 11.4716 11.5105 11.5493 11.572 11.5947 11.6174 11.6401
11.6628 11.7384 11.814 11.8896 11.9651 12.041 12.0793 12.1176 12.1557 12.194
12.2314 12.2691 12.3068 12.3444 12.382 12.4196 12.4955 12.5712 12.6467 12.7222
12.7978 12.8198 12.8419 12.8639 12.886 12.9079 12.9617 13.0155 13.0692 13.1229
13.1764 13.2523 13.328 13.4036 13.4794 13.5545 13.5603 13.5661 13.5719 13.5777
13.5835 13.6535 13.7234 13.7934 13.8634 13.9326 14.0007 14.0687 14.1367 14.2049
14.2759 14.2828 14.2896 14.2965 14.3033 14.3102 14.3857 14.4612 14.5369 14.6126
14.6879 14.7532 14.8184 14.8836 14.9489 15.0161 15.026 15.0359 15.0458 15.0557
15.0656 15.1413 15.2168 15.2924 15.368 15.4433 15.5043 15.5653 15.6263 15.6875
15.7449 15.7498 15.7548 15.7597 15.7646 15.7695 15.7799 15.7903 15.8007 15.8111
15.8215 15.8974 15.9732 16.0489 16.1247 16.2002 16.2763 16.352 16.4276 16.5035
16.5801 16.5803 16.5805 16.5807 16.5809 16.5811 16.7335 16.886 17.0384 17.1908
17.3428 17.499 17.6532 17.8059 17.9596 18.1135 18.1318 18.1502 18.1685 18.1868
18.2052 18.3422 18.4789 18.6151 18.7509 18.8873 19.0435 19.1978 19.3506 19.5034
19.6578 19.7134 19.7688 19.8241 19.8794 19.9347 20.034 20.1332 20.2323 20.3312
20.4301 20.585 20.7392 20.8933 21.0475 21.2017 21.3092 21.4166 21.5241 21.6317
21.7406 21.7582 21.7758 21.7934 21.8111 21.8288 21.8577 21.8866 21.9155 21.9443
21.9732 22.0504 22.1274 22.2045 22.2816 22.3587 22.4175 22.4761 22.5346 22.5933
22.6517 22.6703 22.689 22.7077 22.7264 22.7451 22.8226 22.8997 22.9766 23.0534
23.1308 23.2082 23.2853 23.3622 23.4393 23.5168 23.5287 23.5406 23.5525 23.5644
23.5763 23.7195 23.8627 24.006 24.1491 24.2926 24.4498 24.6054 24.7605 24.9158
25.0739 25.1601 25.245 25.3292 25.4134 25.4877 25.5613 25.635 25.7088 25.7826
25.8564 25.9344 26.0126 26.0908 26.169 26.2472 26.288 26.3289 26.3698 26.4106
26.4515 26.4888 26.526 26.5633 26.6005 26.6378 26.6648 26.6918 26.7188 26.7458
26.7725 26.8237 26.8748 26.9259 26.9771 27.0282 27.106 27.1837 27.2615 27.3392
27.4166 27.417 27.4174 27.4178 27.4182 27.4186 27.575 27.7315 27.8879 28.0443
28.2008 28.359 28.5161 28.6721 28.8282 28.9864 29.0644 29.142 29.2194 29.2967
29.3715 0 0.0480097 0.0960062 0.144004 0.192009 0.240089 0.265979 0.291869 0.31776
0.343651 0.36954 0.444544 0.519518 0.594484 0.669432 0.74435 0.81934 0.894292 0.969217
1.04415 1.11905 1.14374 1.16843 1.19311 1.2178 1.24254 1.29278 1.34303 1.39327
1.44351 1.49373 1.56867 1.64359 1.7185 1.79341 1.86829 1.94324 2.01816 2.09308
2.16801 2.24291 2.24538 2.24785 2.25032 2.25278 2.25525 2.32773 2.4002 2.47266
2.54513 2.61752 2.69247 2.76738 2.8423 2.91724 2.99209 3.04984 3.10755 3.16528
3.22301 3.28111 3.29823 3.31535 3.33246 3.34958 3.36669 3.44164 3.51657 3.5915
3.66645 3.74134 3.75405 3.76676 3.77947 3.79218 3.80442 3.86674 3.92907 3.99141
4.05375 4.11604 4.15755 4.19905 4.24055 4.28206 4.32387 4.35726 4.39065 4.42403
4.45742 4.49079 4.56577 4.64071 4.71566 4.79062 4.86555 4.94061 5.0156 5.09055
5.16552 5.24052 5.26865 5.29677 5.3249 5.35302 5.38127 5.42816 5.47506 5.52196
5.56887 5.61576 5.69086 5.76594 5.84099 5.91601 5.99103 6.06623 6.14129 6.21633
6.29135 6.36641 6.3784 6.39038 6.40237 6.41436 6.42599 6.48911 6.55225 6.61546
6.67873 6.74217 6.89281 7.04383 7.19513 7.34628 7.4985 7.49983 7.50116 7.50249
7.50383 7.50516 7.55934 7.61346 7.6675 7.72152 7.76615 7.78835 7.81053 7.83271
7.85488 7.87709 7.95288 8.02857 8.10418 8.17967 8.25538 8.30443 8.35335 8.40221
8.45102 8.49791 8.52499 8.55205 8.57909 8.60612 8.63333 8.66736 8.70127 8.7351
8.76891 8.80103 8.84323 8.88539 8.92749 8.96954 9.01195 9.08778 9.16335 9.23862
9.31366 9.38044 9.38249 9.38455 9.3866 9.38865 9.3907 9.42857 9.46639 9.50416
9.54189 9.57994 9.60893 9.63789 9.66682 9.69574 9.7258 9.73445 9.7431 9.75175
9.7604 9.76907 9.84481 9.92039 9.99587 10.0713 10.1474 10.1481 10.1489 10.1496
10.1503 10.151 10.226 10.3009 10.3757 10.4504 10.5257 10.5929 10.66 10.727
10.7941 10.8587 10.8677 10.8767 10.8857 10.8947 10.9037 10.9795 11.055 11.1305
11.2061 11.2818 11.2962 11.3107 11.3251 11.3395 11.3548 11.3937 11.4327 11.4716
11.5106 11.5493 11.5715 11.5937 11.6158 11.638 11.6601 11.7358 11.8113 11.8869
11.9624 12.0383 12.0772 12.116 12.1547 12.1935 12.2314 12.2686 12.3057 12.3428
12.3798 12.417 12.4928 12.5685 12.644 12.7195 12.7951 12.8177 12.8403 12.8629
12.8855 12.908 12.9612 13.0144 13.0676 13.1208 13.1737 13.2496 13.3253 13.4009
13.4767 13.5518 13.5582 13.5645 13.5709 13.5772 13.5836 13.653 13.7224 13.7918
13.8612 13.9299 13.9985 14.067 14.1356 14.2042 14.2759 14.2822 14.2885 14.2948
14.3012 14.3075 14.383 14.4585 14.5342 14.6099 14.6852 14.7511 14.8168 14.8826
14.9484 15.0162 15.0256 15.0349 15.0442 15.0536 15.0629 15.1386 15.2141 15.2897
15.3653 15.4406 15.5018 15.5631 15.6244 15.6858 15.7434 15.7487 15.7539 15.7592
15.7644 15.7696 15.7795 15.7893 15.7991 15.8089 15.8188 15.8947 15.9705 16.0462
16.122 16.1976 16.2738 16.3496 16.4254 16.5014 16.5774 16.5781 16.5789 16.5796
16.5804 16.5811 16.733 16.8849 17.0368 17.1887 17.3401 17.4963 17.6505 17.8032
17.9569 18.1107 18.1296 18.1485 18.1674 18.1863 18.2052 18.3417 18.4778 18.6135
18.7487 18.8845 19.0407 19.195 19.3478 19.5007 19.6551 19.7113 19.7673 19.8232
19.8791 19.935 20.0337 20.1323 20.2308 20.3291 20.4275 20.5824 20.7366 20.8907
21.0449 21.1991 21.3072 21.4152 21.5232 21.6314 21.7409 21.7584 21.7759 21.7935
21.811 21.8287 21.8571 21.8855 21.9138 21.9422 21.9706 22.0477 22.1248 22.2019
22.279 22.3561 22.4155 22.4746 22.5338 22.593 22.6519 22.67 22.6881 22.7062
22.7243 22.7424 22.8199 22.897 22.974 23.0508 23.1281 23.2056 23.2827 23.3596
23.4367 23.5141 23.5266 23.5391 23.5516 23.5641 23.5765 23.7192 23.8618 24.0045
24.147 24.29 24.4471 24.6028 24.7578 24.9132 25.0712 25.158 25.2435 25.3283
25.4132 25.488 25.561 25.6341 25.7073 25.7805 25.8537 25.9317 26.01 26.0882
26.1664 26.2445 26.2859 26.3274 26.3689 26.4103 26.4518 26.4885 26.5252 26.5618
26.5985 26.6351 26.6627 26.6902 26.7177 26.7453 26.7726 26.8232 26.8738 26.9244
26.9749 27.0255 27.1037 27.1817 27.2598 27.3378 27.416 27.4161 27.4163 27.4165
27.4167 27.4169 27.5731 27.7293 27.8856 28.0419 28.1981 28.3563 28.5134 28.6695
28.8255 28.9838 29.0623 29.1405 29.2185 29.2965 29.3718 0 0.0480077 0.0960022
0.143999 0.192002 0.240081 0.265446 0.290812 0.316178 0.341544 0.366908 0.441912 0.516887
0.591853 0.666802 0.741719 0.816709 0.891661 0.966585 1.04152 1.11642 1.14163 1.16685
1.19206 1.21727 1.24254 1.29226 1.34198 1.39169 1.44141 1.4911 1.56604 1.64096
1.71587 1.79078 1.86566 1.94061 2.01553 2.09045 2.16538 2.24028 2.24327 2.24627
2.24926 2.25226 2.25525 2.3272 2.39914 2.47108 2.54302 2.61489 2.68983 2.76475
2.83967 2.9146 2.98946 3.04773 3.10597 3.16422 3.22248 3.28111 3.2977 3.31429
3.33088 3.34747 3.36406 3.43901 3.51393 3.58887 3.66382 3.7387 3.75193 3.76516
3.77838 3.79161 3.80432 3.86614 3.92796 3.98979 4.05162 4.11341 4.15544 4.19747
4.23949 4.28153 4.32387 4.35673 4.38959 4.42245 4.45531 4.48816 4.56313 4.63807
4.71302 4.78798 4.86291 4.93797 5.01296 5.08791 5.16288 5.23788 5.26654 5.29519
5.32384 5.35249 5.38127 5.42764 5.474 5.52037 5.56676 5.61312 5.68822 5.7633
5.83835 5.91337 5.98839 6.06359 6.13866 6.2137 6.28871 6.36377 6.37628 6.38879
6.4013 6.4138 6.42593 6.48853 6.55116 6.61385 6.6766 6.73952 6.89016 7.04118
7.19247 7.34361 7.49583 7.49769 7.49956 7.50142 7.50328 7.50514 7.55931 7.6134
7.66742 7.72142 7.76604 7.78772 7.8094 7.83107 7.85273 7.87443 7.95022 8.02591
8.10152 8.17701 8.25272 8.30232 8.35178 8.40117 8.45052 8.49791 8.52446 8.55099
8.5775 8.604 8.63068 8.66523 8.69964 8.73399 8.76832 8.80094 8.84263 8.88427
8.92586 8.9674 9.00929 9.08524 9.16092 9.2363 9.31146 9.38048 9.38199 9.3835
9.38501 9.38652 9.38802 9.42589 9.46372 9.50149 9.53922 9.57727 9.60678 9.63626
9.66571 9.69515 9.72576 9.73389 9.74201 9.75014 9.75826 9.7664 9.84214 9.91772
9.9932 10.0686 10.1448 10.146 10.1473 10.1485 10.1498 10.151 10.2255 10.2999
10.3741 10.4483 10.523 10.5908 10.6584 10.726 10.7936 10.8587 10.8672 10.8756
10.8841 10.8926 10.901 10.9768 11.0523 11.1279 11.2034 11.2791 11.2941 11.309
11.324 11.339 11.3548 11.3938 11.4327 11.4716 11.5106 11.5494 11.571 11.5926
11.6142 11.6358 11.6574 11.7331 11.8086 11.8842 11.9597 12.0356 12.075 12.1144
12.1537 12.193 12.2314 12.2681 12.3047 12.3412 12.3777 12.4143 12.4901 12.5658
12.6413 12.7168 12.7924 12.8155 12.8387 12.8618 12.885 12.908 12.9607 13.0134
13.066 13.1186 13.171 13.2469 13.3226 13.3982 13.474 13.5491 13.556 13.5629
13.5698 13.5767 13.5836 13.6525 13.7213 13.7902 13.8591 13.9272 13.9963 14.0654
14.1344 14.2036 14.2758 14.2816 14.2874 14.2932 14.299 14.3048 14.3803 14.4558
14.5315 14.6072 14.6825 14.7489 14.8152 14.8815 14.9479 15.0163 15.0251 15.0339
15.0427 15.0514 15.0602 15.1359 15.2114 15.287 15.3626 15.4379 15.4994 15.5609
15.6225 15.6841 15.742 15.7475 15.7531 15.7586 15.7642 15.7697 15.779 15.7883
15.7975 15.8068 15.8161 15.892 15.9678 16.0435 16.1193 16.1949 16.2711 16.3469
16.4227 16.4987 16.5746 16.576 16.5773 16.5786 16.5799 16.5812 16.7325 16.8838
17.0352 17.1865 17.3374 17.4936 17.6478 17.8004 17.9541 18.1079 18.1274 18.1469
18.1663 18.1858 18.2053 18.3412 18.4767 18.6118 18.7465 18.8818 19.038 19.1923
19.3451 19.498 19.6524 19.7092 19.7657 19.8221 19.8786 19.9351 20.0332 20.1313
20.2292 20.3269 20.4248 20.5797 20.7338 20.8879 21.0421 21.1963 21.305 21.4136
21.5221 21.6309 21.741 21.7585 21.776 21.7935 21.811 21.8286 21.8565 21.8843
21.9122 21.94 21.9678 22.045 22.1221 22.1991 22.2762 22.3533 22.4133 22.473
22.5327 22.5925 22.652 22.6696 22.6871 22.7046 22.7221 22.7397 22.8172 22.8943
22.9712 23.0481 23.1254 23.2029 23.28 23.3568 23.4339 23.5113 23.5244 23.5375
23.5505 23.5636 23.5766 23.7187 23.8608 24.0029 24.1448 24.2872 24.4443 24.6
24.7551 24.9104 25.0684 25.1558 25.2419 25.3273 25.4127 25.4881 25.5605 25.633
25.7056 25.7783 25.8509 25.9289 26.0072 26.0854 26.1636 26.2417 26.2837 26.3258
26.3678 26.4098 26.4519 26.488 26.5241 26.5602 26.5962 26.6323 26.6605 26.6886
26.7168 26.7449 26.7729 26.8228 26.8728 26.9228 26.9728 27.0227 27.1009 27.1789
27.257 27.335 27.4131 27.4139 27.4147 27.4154 27.4162 27.4169 27.5726 27.7283
27.8839 28.0396 28.1953 28.3535 28.5106 28.6667 28.8227 28.981 29.0601 29.1389
29.2175 29.2961 29.3719 0 0.0480056 0.0959981 0.143993 0.191995 0.240073 0.264913
0.289754 0.314595 0.339437 0.364277 0.439281 0.514255 0.589222 0.664171 0.739088 0.814078
0.88903 0.963954 1.03889 1.11379 1.13953 1.16527 1.19101 1.21675 1.24254 1.29173
1.34092 1.39011 1.4393 1.48847 1.56341 1.63833 1.71323 1.78815 1.86302 1.93798
2.0129 2.08781 2.16275 2.23765 2.24117 2.24469 2.24821 2.25173 2.25525 2.32667
2.39809 2.4695 2.54092 2.61226 2.6872 2.76212 2.83704 2.91197 2.98683 3.04562
3.10439 3.16316 3.22194 3.28111 3.29718 3.31324 3.3293 3.34537 3.36143 3.43638
3.5113 3.58623 3.66118 3.73607 3.74981 3.76355 3.7773 3.79104 3.80423 3.86553
3.92685 3.98817 4.0495 4.11077 4.15333 4.19588 4.23844 4.28099 4.32387 4.3562
4.38854 4.42087 4.4532 4.48553 4.5605 4.63544 4.71039 4.78535 4.86028 4.93534
5.01033 5.08527 5.16024 5.23524 5.26442 5.2936 5.32278 5.35196 5.38127 5.42711
5.47294 5.51879 5.56465 5.61048 5.68558 5.76066 5.83571 5.91073 5.98575 6.06096
6.13602 6.21106 6.28608 6.36113 6.37416 6.38719 6.40022 6.41325 6.42587 6.48796
6.55007 6.61224 6.67447 6.73688 6.88751 7.03852 7.1898 7.34095 7.49317 7.49556
7.49795 7.50035 7.50274 7.50513 7.55927 7.61335 7.66735 7.72132 7.76593 7.7871
7.80827 7.82943 7.85058 7.87177 7.94756 8.02325 8.09886 8.17435 8.25007 8.30021
8.35021 8.40014 8.45002 8.49791 8.52393 8.54993 8.57591 8.60188 8.62803 8.66309
8.69802 8.73289 8.76772 8.80085 8.84203 8.88315 8.92423 8.96526 9.00663 9.08257
9.15825 9.23364 9.30879 9.38053 9.38149 9.38246 9.38342 9.38439 9.38535 9.42322
9.46105 9.49882 9.53656 9.5746 9.60463 9.63463 9.6646 9.69455 9.72573 9.73333
9.74092 9.74852 9.75612 9.76373 9.83947 9.91505 9.99053 10.066 10.1421 10.1439
10.1457 10.1475 10.1493 10.1511 10.225 10.2988 10.3725 10.4461 10.5203 10.5886
10.6568 10.725 10.7932 10.8587 10.8667 10.8746 10.8825 10.8904 10.8984 10.9741
11.0496 11.1252 11.2007 11.2764 11.2919 11.3074 11.3229 11.3383 11.3548 11.3937
11.4327 11.4717 11.5106 11.5494 11.5705 11.5916 11.6126 11.6337 11.6547 11.7304
11.806 11.8815 11.957 12.0329 12.0729 12.1128 12.1526 12.1925 12.2315 12.2676
12.3036 12.3396 12.3755 12.4116 12.4874 12.5631 12.6386 12.7141 12.7897 12.8134
12.8371 12.8608 12.8845 12.9081 12.9602 13.0123 13.0644 13.1165 13.1683 13.2442
13.3199 13.3955 13.4713 13.5464 13.5539 13.5613 13.5688 13.5762 13.5837 13.652
13.7203 13.7886 13.8569 13.9245 13.9941 14.0637 14.1333 14.203 14.2758 14.2811
14.2863 14.2916 14.2968 14.3021 14.3776 14.4531 14.5288 14.6045 14.6798 14.7468
14.8136 14.8805 14.9474 15.0164 15.0246 15.0329 15.0411 15.0493 15.0575 15.1332
15.2087 15.2843 15.3599 15.4352 15.4969 15.5587 15.6205 15.6824 15.7405 15.7464
15.7523 15.7581 15.764 15.7699 15.7786 15.7873 15.796 15.8047 15.8134 15.8893
15.9651 16.0408 16.1166 16.1922 16.2684 16.3442 16.42 16.496 16.5719 16.5738
16.5756 16.5775 16.5794 16.5813 16.732 16.8828 17.0336 17.1843 17.3347 17.4909
17.645 17.7977 17.9513 18.1051 18.1252 18.1452 18.1652 18.1853 18.2054 18.3407
18.4756 18.6102 18.7443 18.879 19.0352 19.1895 19.3423 19.4952 19.6496 19.707
19.7641 19.8211 19.8781 19.9351 20.0328 20.1302 20.2276 20.3247 20.422 20.5769
20.7311 20.8852 21.0394 21.1935 21.3028 21.4119 21.5211 21.6304 21.7411 21.7585
21.776 21.7935 21.811 21.8286 21.8559 21.8832 21.9105 21.9378 21.9651 22.0422
22.1193 22.1964 22.2735 22.3506 22.4111 22.4714 22.5316 22.592 22.6521 22.6691
22.686 22.703 22.7199 22.7369 22.8144 22.8915 22.9684 23.0453 23.1226 23.2001
23.2772 23.3541 23.4311 23.5085 23.5222 23.5358 23.5494 23.5631 23.5767 23.7182
23.8597 24.0012 24.1426 24.2844 24.4415 24.5972 24.7522 24.9076 25.0656 25.1536
25.2403 25.3263 25.4123 25.4882 25.56 25.632 25.704 25.7761 25.8481 25.9261
26.0043 26.0826 26.1608 26.2389 26.2815 26.3241 26.3667 26.4093 26.452 26.4875
26.523 26.5585 26.594 26.6295 26.6583 26.6871 26.7159 26.7447 26.7732 26.8226
26.8719 26.9212 26.9706 27.0199 27.0981 27.1761 27.2542 27.3322 27.4103 27.4117