# vtk DataFile Version 2.0
sampleSurface
ASCII
DATASET POLYDATA
POINTS 3098 float
0.746192 0 -5.00894e-05 -6.50534 1.11022e-16 -4.7391e-05 0.739507 0 7.49995 7.99812 0
1.94289e-05 -6.5124 -1.11022e-16 7.49992 7.99235 -1.11022e-16 7.50019 -13.7546 0 -1.50031e-05
0.734852 -1.11022e-16 14.9998 15.2496 -1.11022e-16 6.60617e-05 -13.7602 0 7.49982 -6.51784
-1.11022e-16 14.9998 15.2414 -1.11022e-16 7.50009 7.98685 0 14.9998 -13.7648 0
14.9999 -20.9938 0 4.36099e-06 15.2348 -1.11022e-16 14.9998 -20.9936 2.22045e-16 7.49977
22.5022 0 1.49541e-05 0.735071 0 22.4998 -6.51815 -1.11022e-16 22.4999 22.4915
0 7.49989 7.98745 -1.11022e-16 22.4998 -20.9933 -1.11022e-16 14.9999 -13.7652 1.11022e-16
22.4999 22.4829 -1.11022e-16 14.9998 15.2356 0 22.4998 -28.2515 0 2.62893e-05
-28.2534 0 7.50012 29.7556 -1.11022e-16 -4.54549e-05 0.735819 1.11022e-16 29.9999 29.7426
0 7.4992 -6.51767 0 29.9999 -20.9933 -1.11022e-16 22.5 7.98856 0
29.9999 22.4839 1.11022e-16 22.4999 -28.255 0 15 -13.7649 0 30
29.7256 0 14.9997 15.237 0 29.9999 -35.5072 -1.11022e-16 5.90779e-05 -28.2551
0 22.5 -35.5123 1.11022e-16 7.50007 -20.993 1.11022e-16 30 36.9932 0
-7.53554e-05 29.7252 1.11022e-16 22.4999 22.4857 -1.11022e-16 29.9999 0.736256 -1.11022e-16 37.5
37.0663 -1.11022e-16 7.5 -6.5174 0 37.5 7.98913 1.11022e-16 37.5 -35.5169
-2.22045e-16 15 36.9578 0 14.9999 -13.7648 0 37.5 15.2378 0
37.5 -28.255 0 30 -35.5174 0 22.5 29.7273 -1.11022e-16 30
-42.7594 0 0.000106246 -20.9929 1.11022e-16 37.5 36.9398 -3.33067e-16 22.4999 -42.765
0 7.50013 22.4866 -1.11022e-16 37.5 44.3067 1.11022e-16 -0.000173064 44.3156 -5.55112e-17
3.74923 44.3638 -1.11022e-16 7.50044 0.736588 -1.11022e-16 45 -42.7692 2.22045e-16 15.0001
-6.51713 0 45 7.98959 0 45 -35.5174 0 30 44.2537
1.11022e-16 14.9995 -28.2549 0 37.5 -13.7646 -2.22045e-16 45 15.2384 1.11022e-16
45 36.9405 0 30 29.7284 0 37.5 47.8983 5.55112e-17 -0.000231375
47.9106 0 3.74943 -42.7696 1.11022e-16 22.5 48.0131 0 7.50081 44.229
-2.22045e-16 22.4999 -20.9927 -1.11022e-16 45 -50 -1.11022e-16 0.000116555 22.4873 -1.11022e-16
45 -50 -1.11022e-16 7.50012 51.4805 0 -0.000354952 -35.5173 1.11022e-16 37.5
51.6484 5.55112e-17 3.75115 -50 -2.22045e-16 15.0001 51.6711 0 7.50084 -42.7696
0 30 0.736735 -1.11022e-16 52.5 36.9419 0 37.5 51.4953 -1.11022e-16
11.2492 -6.51706 0 52.5 7.98975 0 52.5 -28.2549 0 45
44.2289 -1.11022e-16 30 51.37 -5.55112e-17 14.9994 29.729 -1.11022e-16 45 -13.7646
0 52.5 51.3052 -2.1684e-19 18.7496 51.3048 -2.60209e-18 18.8318 15.2386 -2.22045e-16
52.5 51.3708 -2.38524e-18 18.7496 -50 1.11022e-16 22.5 54.9985 0 -0.00260162
55.0346 0 1.87535 55.1369 0 3.75138 55.3085 5.55112e-17 7.50038 51.2883
-5.55112e-17 22.4998 55.0461 -5.55112e-17 11.249 -20.9927 0 52.5 56.7456 0
0.0299735 56.7783 -2.77556e-17 1.87544 -42.7696 0 37.5 54.8698 0 14.9993
56.8619 2.77556e-17 3.75216 22.4876 1.11022e-16 52.5 -35.5173 -1.11022e-16 45 54.8229
0 17.1162 51.2808 6.93889e-18 26.2499 55.7413 -6.93889e-18 14.9994 54.8037 0
18.7496 44.2298 -1.11022e-16 37.5 36.9422 -2.22045e-16 45 -50 0 30
58.4645 0 -0.244693 58.5154 0 1.88535 58.9168 0 -0.257294 58.9375
1.38778e-17 1.84572 58.8346 1.38778e-17 4.04008 59.1468 -3.46945e-18 1.82581 59.2027 0
-0.270676 59.0815 0 3.9148 54.7907 0 22.4998 59.2532 0 -0.267831
59.2573 0 1.824 58.2324 -1.38778e-17 11.2624 59.254 0 3.02719 58.004
1.38778e-17 12.6256 59.2576 -3.46945e-18 3.82483 51.283 -6.245e-17 30 57.6498 2.77556e-17
14.9995 -28.2548 1.11022e-16 52.5 59.2774 -2.77556e-17 7.62697 58.8187 2.77556e-17 11.263
58.0011 -1.38778e-17 14.9995 0.736891 0 60 58.3071 0 14.9994 29.7293
1.11022e-16 52.5 59.2786 -2.77556e-17 11.2636 -6.5169 0 60 57.4289 2.77556e-17
18.7498 7.98997 -1.11022e-16 60 58.8533 5.55112e-17 14.9994 54.7868 1.249e-16 26.2499
58.0003 -1.38778e-17 18.7498 58.1668 0 18.7498 59.2769 -2.77556e-17 14.9994 51.2799
6.93889e-18 33.75 -13.7644 0 60 57.3667 0 22.4999 58.7945 0
18.7497 15.2389 1.11022e-16 60 -42.7696 -1.11022e-16 45 59.2786 -2.77556e-17 18.7497
57.9997 2.77556e-17 22.4999 58.1285 -6.245e-17 22.4999 54.7871 0 30 -50
0 37.5 58.7775 2.77556e-17 22.4999 57.3544 0 26.25 44.2301 -1.11022e-16
45 -35.5173 -2.22045e-16 52.5 59.2769 0 22.4998 51.283 -6.93889e-18 37.5
-20.9926 1.11022e-16 60 58.0001 0 26.25 58.1216 0 26.25 22.4878
1.11022e-16 60 36.9426 0 52.5 54.7861 -8.32667e-17 33.75 58.7756 0
26.25 57.3526 -1.66533e-16 30 59.2786 0 26.25 57.9997 -2.08167e-17 30
58.1203 2.08167e-17 30 51.28 0 41.25 58.7742 -5.55112e-17 30 -28.2547
0 60 54.7871 0 37.5 59.2769 0 30 57.3525 0
33.75 29.7295 0 60 58.0002 0 33.75 58.1205 -6.93889e-18 33.75
-50 0 45 0.736925 0 67.5 -42.7695 0 52.5 58.7752
-2.77556e-17 33.75 -6.5169 3.33067e-16 67.5 7.98998 -1.11022e-16 67.5 59.2786 2.77556e-17
33.75 51.2831 -3.46945e-17 45 57.3524 5.55112e-17 37.5 54.7862 1.38778e-17 41.25
44.2303 1.11022e-16 52.5 -13.7644 0 67.5 57.9998 0 37.5 58.1202
4.16334e-17 37.5 15.2389 -1.11022e-16 67.5 58.7741 0 37.5 -35.5171 1.11022e-16
60 59.2769 0 37.5 36.9425 0 60 57.3524 -5.55112e-17 41.25
-20.9926 -1.11022e-16 67.5 51.2801 -6.93889e-18 48.75 54.787 0 45 22.4878
2.22045e-16 67.5 58.0002 6.93889e-18 41.25 58.1204 0 41.25 58.7752 -2.77556e-17
41.25 59.2786 -2.77556e-17 41.25 -50 0 52.5 57.3524 0 45
-28.2547 1.11022e-16 67.5 54.7862 -2.77556e-17 48.75 51.2831 -6.245e-17 52.5 57.9998
6.93889e-18 45 58.1202 -6.93889e-18 45 -42.7695 -1.11022e-16 60 29.7296 0
67.5 58.7741 2.77556e-17 45 59.2769 0 45 44.2304 -2.22045e-16 60
0.737014 0 75 57.3524 0 48.75 -6.51679 -1.11022e-16 75 7.99012
-2.22045e-16 75 58.0002 -6.93889e-18 48.75 58.1204 0 48.75 54.787 -1.38778e-17
52.5 51.2801 0 56.25 -13.7644 0 75 -35.5171 -1.11022e-16 67.5
58.7752 2.77556e-17 48.75 15.239 0 75 59.2786 2.77556e-17 48.75 36.9428
2.22045e-16 67.5 57.3524 0 52.5 -20.9926 1.11022e-16 75 -50 -1.11022e-16
60 57.9998 6.93889e-18 52.5 22.4879 0 75 58.1202 -6.93889e-18 52.5
54.7862 -1.38778e-17 56.25 58.7741 2.77556e-17 52.5 51.2831 -1.38778e-17 60 59.2769
-2.77556e-17 52.5 -42.7695 0 67.5 -28.2547 1.11022e-16 75 57.3524 0
56.25 29.7296 0 75 44.2304 -1.11022e-16 67.5 58.0002 2.08167e-17 56.25
58.1204 6.93889e-18 56.25 54.7871 0 60 58.7752 2.77556e-17 56.25 59.2786
2.77556e-17 56.25 51.2801 0 63.75 0.737004 -1.11022e-16 82.5 -6.51683 0
82.5 7.99007 1.11022e-16 82.5 -35.5171 0 75 57.3524 0 60
57.9998 1.38778e-17 60 58.1202 4.85723e-17 60 36.9426 1.11022e-16 75 -13.7644
1.11022e-16 82.5 15.239 -2.22045e-16 82.5 58.7741 2.77556e-17 60 -50 2.22045e-16
67.5 54.7862 -2.77556e-17 63.75 59.2769 -2.77556e-17 60 51.2831 -6.245e-17 67.5
-20.9926 -1.11022e-16 82.5 22.4879 1.11022e-16 82.5 57.3524 0 63.75 58.0002
6.93889e-18 63.75 58.1204 6.93889e-18 63.75 -42.7695 0 75 58.7752 -2.77556e-17
63.75 54.787 0 67.5 59.2786 2.77556e-17 63.75 44.2304 0 75
-28.2547 -1.11022e-16 82.5 29.7297 0 82.5 51.2801 0 71.25 57.3524
0 67.5 57.9998 1.38778e-17 67.5 58.1202 4.85723e-17 67.5 58.7741 2.77556e-17
67.5 -35.5171 0 82.5 59.2769 -2.77556e-17 67.5 54.7862 -6.93889e-17 71.25
0.737067 -1.11022e-16 90 -50 -1.11022e-16 75 -6.51675 -1.11022e-16 90 7.99018
1.11022e-16 90 36.9429 2.22045e-16 82.5 51.2831 1.17961e-16 75 -13.7643 0
90 15.239 -1.11022e-16 90 57.3524 0 71.25 58.0002 6.93889e-18 71.25
58.1204 6.93889e-18 71.25 58.7752 -2.77556e-17 71.25 -20.9925 1.11022e-16 90 59.2786
2.77556e-17 71.25 22.488 1.11022e-16 90 54.7871 0 75 -42.7695 0
82.5 44.2305 0 82.5 51.2801 -6.93889e-18 78.75 -28.2547 -2.22045e-16 90
57.3524 0 75 29.7297 -1.11022e-16 90 57.9998 1.38778e-17 75 58.1202
4.85723e-17 75 58.7741 2.77556e-17 75 59.2769 -2.77556e-17 75 54.7862 0
78.75 -50 0 82.5 -35.5171 1.11022e-16 90 51.2831 -1.80411e-16 82.5
36.9427 1.11022e-16 90 57.3524 0 78.75 0.737038 0 97.5 -6.5168
0 97.5 58.0002 6.93889e-18 78.75 7.9901 -1.11022e-16 97.5 58.1204 6.93889e-18
78.75 58.7752 -2.77556e-17 78.75 -13.7644 2.22045e-16 97.5 59.2786 2.77556e-17 78.75
15.239 0 97.5 54.787 -1.38778e-17 82.5 -42.7695 -1.11022e-16 90 -20.9926
-1.11022e-16 97.5 22.4879 0 97.5 44.2304 1.11022e-16 90 51.2801 0
86.25 57.3524 0 82.5 57.9998 -6.93889e-18 82.5 58.1202 4.85723e-17 82.5
58.7741 2.77556e-17 82.5 -28.2547 0 97.5 59.2769 -2.77556e-17 82.5 29.7297
1.11022e-16 97.5 54.7862 1.38778e-17 86.25 -50 0 90 57.3524 0
86.25 51.2831 -6.93889e-18 90 -35.5171 -1.11022e-16 97.5 58.0002 1.38778e-17 86.25
58.1204 6.93889e-18 86.25 36.9429 2.22045e-16 97.5 58.7752 -2.77556e-17 86.25 59.2786
2.77556e-17 86.25 0.73709 -1.11022e-16 105 -6.51673 0 105 7.9902 -1.11022e-16
105 54.7871 0 90 -13.7643 0 105 15.239 1.11022e-16 105
-42.7695 -1.11022e-16 97.5 57.3524 0 90 51.2801 0 93.75 44.2305
1.11022e-16 97.5 57.9998 1.38778e-17 90 -20.9925 2.22045e-16 105 58.1202 4.85723e-17
90 22.4881 0 105 58.7741 2.77556e-17 90 59.2769 -2.77556e-17 90
54.7862 0 93.75 -28.2547 0 105 29.7297 0 105 -50
-1.11022e-16 97.5 57.3524 0 93.75 51.2831 -1.04083e-16 97.5 58.0002 6.93889e-18
93.75 58.1204 6.93889e-18 93.75 58.7752 -2.77556e-17 93.75 -35.5171 0 105
59.2786 2.77556e-17 93.75 36.9427 -1.11022e-16 105 54.787 1.38778e-17 97.5 0.737054
-1.11022e-16 112.5 -6.51679 2.22045e-16 112.5 7.99012 -1.11022e-16 112.5 57.3524 0
97.5 -13.7644 0 112.5 -42.7695 0 105 57.9998 1.38778e-17 97.5
51.2801 -6.93889e-18 101.25 58.1202 4.85723e-17 97.5 15.239 -1.11022e-16 112.5 58.7741
2.77556e-17 97.5 44.2305 1.11022e-16 105 59.2769 -2.77556e-17 97.5 -20.9926 1.11022e-16
112.5 22.4879 -1.11022e-16 112.5 54.7862 0 101.25 -28.2547 0 112.5
-50 2.22045e-16 105 29.7297 0 112.5 57.3524 0 101.25 58.0002
1.38778e-17 101.25 58.1204 6.93889e-18 101.25 51.2831 2.08167e-17 105 58.7752 -2.77556e-17
101.25 59.2786 2.77556e-17 101.25 -35.5171 -2.22045e-16 112.5 36.9429 1.11022e-16 112.5
54.7871 0 105 57.3524 0 105 57.9998 1.38778e-17 105 0.737101
-1.11022e-16 120 58.1202 4.85723e-17 105 -6.51672 0 120 51.2801 6.93889e-18
108.75 7.99022 -1.11022e-16 120 58.7741 2.77556e-17 105 -42.7695 0 112.5
59.2769 -2.77556e-17 105 -13.7643 -1.11022e-16 120 44.2305 0 112.5 15.239
-1.11022e-16 120 54.7862 -2.77556e-17 108.75 -20.9925 0 120 22.4881 0
120 57.3524 0 108.75 -50 0 112.5 58.0002 6.93889e-18 108.75
[...]
POINT_DATA 3098
FIELD attributes 2
p 1 3098 float
-0.000597614 -0.00373239 0.0497153 0.000750432 0.0485776 0.0442009 -0.00568806 0.0213655 0.00543759 0.0498121 0.0202976
0.0482184 0.0249416 0.0220651 -0.0105049 0.026335 0.0513583 0.0133038 0.00071245 -0.000723719 0.0568188
0.00147009 0.0237255 -0.00311601 0.0281764 0.00186612 -0.0137485 0.0506213 0.0333199 -0.00317928 0.0725739
-0.00354548 -0.00375777 -0.00364046 0.000562048 0.02478 -0.00493879 0.0412829 -0.00440867 -0.0162954 -0.00346131
0.0485375 -0.0054842 0.049138 -0.00812762 -0.00584729 -0.005067 0.0755409 -0.00514161 -0.00555943 0.0240793
0.0639893 -0.00581755 -0.00665631 -0.00575903 -0.00349766 -0.0116573 -0.0160861 -0.00617895 -0.0161036 0.0452586
-0.00807733 0.11298 0.0272101 0.0678925 -0.00687052 0.0245073 -0.00690797 -0.00732641 -0.00592853 0.0755298
-0.00649353 -0.0074403 -0.00838066 -0.0172141 -0.0111549 0.157067 0.0197968 -0.00361436 0.039785 -0.0250254
-0.00781129 -0.0148954 -0.00991427 0.0441308 0.168695 -0.0065483 -0.00558604 0.0255432 0.104894 -0.00696655
-0.00743522 -0.0143742 0.228556 -0.00740347 -0.00783553 -0.00807708 -0.022741 0.0763258 -0.0125772 -0.00776845
-0.0355251 -0.0357736 -0.00865844 -0.0354329 -0.00400385 0.128191 -0.0458055 -0.0817633 0.117728 -0.0466515
0.272841 -0.00805046 0.127044 -0.0616681 -0.00687704 0.0857185 -0.169261 -0.00993982 -0.00806978 0.0198715
-0.0385517 0.0883696 -0.0304634 -0.0177231 -0.0154648 -0.00836124 0.224653 -0.0733564 0.281918 -0.0348405
-0.220957 -0.0365131 0.300143 -0.227753 -0.0495359 0.300823 -0.0399589 0.310031 -0.164268 0.236016
-0.239649 -0.0295809 0.0938331 -0.00823801 0.171507 0.263852 0.0785338 -0.00724189 0.0626645 -0.0121386
0.279388 -0.00714611 -0.0235241 -0.00754374 0.089018 -0.0388281 -0.0209463 -0.0203641 0.088126 -0.0233461
-0.0073279 -0.0467395 -0.0211432 -0.00808448 -0.0080543 -0.0224749 -0.0447721 -0.0439669 -0.0309121 -0.00759737
-0.0428754 -0.037634 -0.0183728 -0.00821426 -0.0421319 -0.0223825 -0.00747262 -0.0365334 -0.0360045 -0.00892384
-0.0145542 -0.0253966 -0.0347698 -0.0312009 -0.0338234 -0.0309614 -0.0306585 -0.0228875 -0.029954 -0.00756213
-0.0238073 -0.0292205 -0.026644 -0.0103467 -0.0273479 -0.0273278 -0.00836764 -0.00671954 -0.00828142 -0.0275777
-0.00658605 -0.00691657 -0.0273372 -0.0223939 -0.0245216 -0.0239762 -0.0168342 -0.00664112 -0.0250906 -0.0251159
-0.00722351 -0.0256637 -0.00749517 -0.0256271 -0.0119369 -0.0242145 -0.00667835 -0.0213945 -0.0233174 -0.00768518
-0.0245176 -0.024524 -0.0251809 -0.0252697 -0.00860238 -0.0231979 -0.00666862 -0.0218734 -0.0192431 -0.0233421
-0.0233316 -0.00761147 -0.00844543 -0.0239875 -0.0241022 -0.0134214 -0.0060624 -0.0216021 -0.00591147 -0.00620243
-0.0216314 -0.0216178 -0.0195694 -0.0168925 -0.0058911 -0.00652731 -0.0223103 -0.00637749 -0.0225038 -0.00924441
-0.0190824 -0.00584942 -0.00794411 -0.0189463 -0.00662533 -0.0189029 -0.0169245 -0.0194459 -0.0144301 -0.0195801
-0.00661036 -0.00576501 -0.0164127 -0.00701581 -0.0101059 -0.0162484 -0.0162027 -0.0144134 -0.0166421 -0.0167287
-0.0123461 -0.00532381 -0.00516892 -0.00541974 -0.00556877 -0.0139488 -0.0138067 -0.0137725 -0.00732192 -0.00508961
-0.00552657 -0.0141736 -0.00690809 -0.0123117 -0.0142728 -0.0107559 -0.00497242 -0.00567322 -0.0119323 -0.0118258
-0.01181 -0.00560156 -0.0121955 -0.0106778 -0.0123141 -0.00787098 -0.00482827 -0.00590367 -0.00950168 -0.0103098
-0.0101982 -0.0101831 -0.0105015 -0.00458168 -0.0106018 -0.00945661 -0.00459111 -0.00584781 -0.00440836 -0.00469422
-0.00598855 -0.00848513 -0.00428045 -0.00479636 -0.00918285 -0.00911561 -0.00911274 -0.00939779 -0.00412106 -0.00949296
-0.00491554 -0.00846738 -0.00458 -0.00637915 -0.00777255 -0.00393442 -0.00826015 -0.0050917 -0.00822114 -0.00822206
-0.00845467 -0.00853223 -0.00779961 -0.0048044 -0.00365234 -0.00721566 -0.00509827 -0.0076942 -0.00393293 -0.00372999
-0.00771873 -0.00407557 -0.00773175 -0.00794544 -0.00358081 -0.00801678 -0.00420237 -0.00730307 -0.00363044 -0.00338436
-0.00432329 -0.00547382 -0.00681139 -0.00724567 -0.0072944 -0.00731022 -0.00748489 -0.00315466 -0.00754091 -0.00450049
-0.00692556 -0.00384429 -0.00695439 -0.00643376 -0.00284972 -0.00705383 -0.00707727 -0.00453101 -0.00723296 -0.00728115
-0.00338078 -0.00319111 -0.00351834 -0.00661521 -0.00303758 -0.00362526 -0.00280311 -0.00669075 -0.0062543 -0.00488022
-0.00680691 -0.00282396 -0.00683223 -0.00372618 -0.00695998 -0.00699789 -0.00643278 -0.00258548 -0.0038909 -0.00299407
-0.00655843 -0.00598051 -0.0066968 -0.0067251 -0.00683184 -0.00228098 -0.00685881 -0.00395797 -0.00623012 -0.00282
-0.00263743 -0.00293562 -0.00637069 -0.00247749 -0.0022087 -0.00651146 -0.00575428 -0.00653841 -0.0030183 -0.00661916
-0.00432111 -0.00663355 -0.00228563 -0.00310188 -0.0059837 -0.00208228 -0.00236472 -0.00324477 -0.00617314 -0.00632902
-0.00635794 -0.00536776 -0.00642692 -0.00643749 -0.00179639 -0.0033841 -0.00566858 -0.00588278 -0.0060412 -0.00225152
-0.0060694 -0.00207988 -0.00513515 -0.00235701 -0.00612182 -0.00171456 -0.00612576 -0.00191959 -0.00373898 -0.002437
-0.00540577 -0.00173595 -0.00251976 -0.00565021 -0.0018461 -0.00581548 -0.00154003 -0.00584544 -0.00589079 -0.00265073
-0.0047683 -0.00589286 -0.00509796 -0.001254 -0.00281876 -0.00534711 -0.00550529 -0.00553364 -0.00556313 -0.00447759
-0.00555819 -0.00116758 -0.00171569 -0.00154946 -0.00181827 -0.00318475 -0.0013915 -0.00189309 -0.0047758 -0.00120148
-0.0019762 -0.00506006 -0.00522635 -0.00525614 -0.00128893 -0.00528323 -0.00527945 -0.00409931 -0.00099617 -0.00209646
-0.0044644 -0.000713892 -0.00228846 -0.00476946 -0.00493559 -0.00496482 -0.00498543 -0.00498132 -0.00390679 -0.000614601
-0.00267339 -0.00121312 -0.00105 -0.00130766 -0.00424955 -0.000890189 -0.00137935 -0.0045661 -0.00069924 -0.00472235
-0.0047487 -0.00146737 -0.000713939 -0.00475582 -0.00474475 -0.00365311 -0.000489184 -0.00158561 -0.00406473 -0.000206063
-0.00438275 -0.00178698 -0.00453078 -0.00455423 -0.00454597 -0.00452728 -0.00344562 -9.53189e-05 -0.00219064 -0.00381892
-0.000738145 -0.000579919 -0.000834708 -0.000422982 -0.00414473 -0.000910913 -0.00428676 -0.00430755 -0.0042897 -0.000177785
-0.0042661 -0.000233935 -0.00100564 -0.0030733 -2.38002e-05 -0.0011204 -0.00349121 -0.00382241 0.000258413 -0.00396022
-0.00398109 -0.00132595 -0.00396376 -0.00394367 0.000234068 -0.00565299 -0.00283435 0.00149904 0.00577533 0.000390028
0.00450234 -0.00462708 0.000373924 0.00109247 0.00522306 0.00328409 -0.00322569 -0.00171372 0.00423373 0.000817817
0.000600584 -0.00320137 0.000609475 -0.00312742 0.000549375 0.00285733 0.000524393 -0.000304468 0.00446353 0.00443613
-0.00356979 -0.000153139 -0.00106169 -0.000403859 0.000764051 0.0038696 -0.00370034 0.00386072 -0.00371889 2.14911e-06
-0.00369265 -0.000484775 0.00224892 0.0022336 -0.00225853 -0.00366734 -0.000964054 0.000300925 0.000438917 -0.00199285
0.00066899 0.000666487 0.00014232 -0.00253882 0.000191946 -0.00214364 0.00296825 -0.00298403 -0.000582712 -0.000836756
-0.000833546 0.00284932 0.00165068 -0.00287407 0.000286487 -0.00119738 -0.00343186 -0.00198744 -0.00198337 0.000402994
-0.000148893 -0.00297144 0.00183515 0.00046108 -0.000693904 0.00206371 -0.00332169 -0.00272695 -0.00272311 -0.00355608
-0.000746943 -0.00330224 0.00128181 -0.00341518 -0.00343064 0.000336391 -0.00339684 0.000677388 -0.0017326 -0.00345664
-0.00317593 -0.00317216 -0.00336883 0.000114127 -0.000897327 -0.00088948 -0.00025448 -0.00342159 -0.00068731 0.00117197
-0.0024191 -0.00230926 0.00152437 -0.00332537 -0.00332196 -0.00334664 -0.00155591 0.00100692 -0.00319174 -0.00285304
0.000234263 0.00079375 -0.00220722 -0.00270456 -0.00324856 -0.00324597 -0.00128456 -0.0031397 -0.000643024 -0.0030075
-7.62256e-05 -0.000574858 -0.00295867 -0.000385538 -0.00262178 -0.00304493 0.000438509 -0.0014059 -0.00315442 -0.00307198
-0.00316859 -0.00307012 0.000897722 8.52301e-05 -0.0031291 -0.00292178 0.000228918 -1.61508e-05 -0.00297567 -0.00309752
0.000675954 -0.00278675 -0.00199663 0.000381483 0.000732399 -0.00272656 -0.000100071 9.95108e-05 -0.00199575 -0.00287414
-0.00287277 -0.00239538 0.000570464 -0.00269704 -0.00285709 -0.000603052 -0.00277977 -0.00019418 -0.0025143 -0.00123963
-0.0024285 -0.0025617 -0.00265908 -0.00265794 0.000783624 -0.00270557 -0.00270735 -0.000191044 -0.00248954 -0.000297961
-0.000412993 -0.00176527 -0.000400234 -0.00277487 -6.61227e-05 -0.00257872 -0.0028847 -0.00289958 0.000240919 -0.00233935
-0.00286512 -0.00213846 -0.0024577 -0.00245672 -0.0025859 -0.00283913 0.000189109 -0.00251885 0.00105484 -0.00232003
-0.000494539 -0.00014892 -0.00252794 -0.00183573 -0.00231159 -0.000628047 -0.00241986 -0.00218886 -0.00229536 -0.00229458
-0.00233585 -0.00244272 -0.0010968 -0.00234941 0.00117233 -0.00223719 -0.0021725 -0.000890186 -0.00150771 -0.00224801
-0.000240934 -0.000403642 -0.00046998 -0.00257442 -0.00203858 -0.00219733 -0.0021514 -0.0021507 -0.00232995 -0.00230085
-0.000339174 -0.00267185 -0.0026845 -0.000162176 -0.00181625 -0.0026441 -0.00261506 -0.00202134 -0.000189422 0.00043233
0.000570663 0.000330223 0.00111991 -0.00212735 -0.00227919 -0.000395576 -0.0019858 0.000721468 -0.00214778 -0.00206908
-0.00163328 0.000246068 -0.00199882 -0.00199809 -0.00189652 -0.000709971 0.000912294 -0.00205192 -0.00187792 0.000155099
-0.00216709 -0.00104819 -0.00200868 -0.00205398 -0.00203459 -0.00191688 -0.00137373 -0.00185364 -0.00185289 0.00112391
-0.00177626 -0.0020707 -0.000321011 -0.000472998 -0.00236661 5.59732e-05 -0.000592618 -0.00245164 -0.00203287 -0.00246267
-0.000564777 -0.00241882 -0.00162799 -0.00175865 -0.000458657 -0.00238879 -0.0018596 -0.00193017 -0.000488435 -0.00205363
0.00139397 -0.00177119 -0.00177309 -0.000641085 -0.00173586 -0.000131726 -0.00173518 -0.00146589 -0.00193139 -0.00165947
-0.000851814 -0.00198333 -0.0017122 -0.00184988 -0.00164253 -0.00179148 -0.00107612 -0.0018498 0.00151537 -0.00166341
-0.00184051 -0.000530644 -0.00162038 -0.00161971 -0.00132814 -0.00190049 -0.00188588 -0.00216106 -0.000411602 -0.00152292
-0.000549935 -0.000691905 -0.00224046 -0.00224973 -0.000731815 -0.00164851 -0.00161164 -0.00220068 -0.00154306 -0.00216795
-0.000673202 -0.00150453 -0.00190434 -0.000700228 -0.00171418 -0.00155589 0.00146613 -0.0017992 0.000744814 -0.00165605
0.000880685 -0.00082342 0.000643762 -0.0014802 -0.00147948 -0.00119696 0.0010226 -0.00138127 -0.000974837 0.000560561
-0.00154665 -0.00185038 -0.00150844 -0.00170591 -0.0013621 0.00120398 -0.001114 -0.0015752 -0.00161523 -0.00171481
0.000468091 -0.00141187 -0.00129053 -0.00176091 -0.001775 -0.00133675 -0.00133603 -0.00192836 -0.000514638 0.00140262
-0.000650784 -0.00200328 -0.00201209 -0.00080338 -0.00144975 0.000370702 -0.00125374 -0.000886487 -0.00196454 -0.00136412
-0.00146528 -0.00193491 -0.00160583 -0.00086329 -0.00147441 -0.00178686 -0.00123653 -0.000882851 -0.00170719 -0.00126387
-0.00156283 0.0016313 -0.000964658 -0.00104371 0.000185058 -0.00121381 -0.00121317 -0.00173976 -0.00106343 -0.001311
-0.00148262 -0.00159136 -0.00121202 -0.00112599 -0.00138249 -0.00162664 -0.0011582 -0.00143163 0.00172143 -0.00111051
-0.00114894 -0.00165922 -0.00163121 -0.00128578 -0.000200382 -0.00173956 -0.000613286 -0.000768361 -0.00180659 -0.00181362
-0.000935439 -0.00137911 -0.00108992 -0.00108933 -0.00115979 -0.00176037 -0.00151758 -0.00101379 -0.00141229 -0.00172719
-0.00124995 -0.00110278 -0.000996883 -0.00167009 -0.000984531 -0.00160383 -0.00102966 -0.00149425 0.00167188 -0.00108909
-0.000968111 -0.00103412 -0.000871703 0.0010249 0.00115949 -0.00164291 0.000925949 -0.00140265 -0.00128006 -0.00113699
-0.00152679 0.00127964 -0.00104758 -0.00154428 0.000841743 -0.000945989 -0.000945361 -0.00109932 -0.00119879 -0.000993263
-0.00128669 0.00140323 -0.000843279 -0.00156225 0.000745189 -0.00155744 -0.00130301 -0.00157991 -0.00130555 -0.000825752
-0.00163762 -0.00115637 -0.000885163 -0.00164266 -0.00143641 -0.000755152 -0.000920352 0.00154962 -0.00158485 -0.00109437
-0.00139251 -0.00154952 0.000645957 -0.00114949 -0.00158533 -0.000942842 -0.00150523 -0.000985976 -0.00110766 -0.000802111
-0.000801456 -0.000842964 -0.00113343 -0.00144408 0.00171473 -0.0012016 -0.00118569 -0.000715413 -0.000738119 -0.00130922
-0.00156859 0.000469632 -0.00101815 -0.00147482 -0.00120242 -0.00146218 -0.000733197 -0.000699443 -0.00122444 -0.00111049
-0.000796953 -0.000884814 -0.00150762 -0.00151105 -0.000678134 -0.000677559 0.00177447 -0.000684866 -0.00121623 -0.0010728
-0.00130499 -0.00139466 7.8842e-05 -0.00136952 -0.00144786 -0.00145218 -0.000900411 -0.000907898 -0.00106634 -0.000590831
-0.00139482 -0.00123236 -0.00138536 -0.00152895 -0.00136044 -0.00145089 -0.00128857 -0.000616783 -0.00123074 -0.000576593
-0.000743554 -0.00122882 -0.000638514 -0.00141795 -0.0011274 0.00174112 -0.00123557 -0.000939772 -0.00150246 -0.00126274
-0.000528269 -0.000557559 -0.000557043 -0.00057322 -0.0013992 0.00126536 -0.00126818 -0.00142922 -0.000789241 0.00136519
0.0011765 0.00144323 -0.000457219 0.00109223 -0.00126756 -0.000930407 -0.00145404 -0.00113332 -0.00099558 -0.000505984
-0.00146578 0.0015033 -0.000441962 -0.000584471 -0.00131331 -0.0013164 -0.000522907 -0.000826718 0.000993963 -0.00121453
-0.00126384 -0.00126792 -0.001033 -0.00118251 -0.00121315 -0.00141175 -0.00133591 -0.00138388 -0.000421244 -0.000468062
-0.000420682 -0.00118236 -0.00149049 -0.000654744 -0.0014003 0.00158964 0.00089157 -0.00134616 -0.0010546 -0.00119342
-0.000846888 -0.00132578 -0.00141138 -0.000329399 -0.00145798 -0.00133028 -0.000709355 -0.00135391 -0.000364239 -0.000418254
-0.000466564 0.00175244 -0.000421417 -0.000313101 -0.00132175 -0.00140876 0.000712894 -0.000507297 -0.00131899 -0.000932656
-0.00108728 -0.000324663 -0.00140226 -0.000784931 -0.000291016 -0.000290427 -0.000735929 -0.00143291 -0.00125763 -0.00134733
0.00184623 -0.00105678 0.000335656 -0.000568594 -0.00109747 -0.00110041 -0.000220712 -0.00114936 -0.0013005 -0.00104347
-0.00136831 -0.00138797 -0.000367557 -0.00145849 -0.00144807 -0.000224824 -0.00101148 -0.00150573 -0.000281876 -0.000994622
-0.000773066 -0.000206298 -0.00144433 -0.00114628 -0.000382963 -0.0014097 -0.00141336 -0.000632396 -0.000178519 -0.00143086
0.00183558 -0.000186968 -0.000186465 -0.00140346 -0.00132075 -0.000285357 -0.00141432 -0.000425082 -0.00137512 -0.000873617
-0.00105175 0.00145837 0.00148972 -0.000650245 0.00139905 -0.00137123 -0.000231854 -0.00136437 -0.000117942 -0.000673837
-0.000127058 -0.00143194 0.00153255 -0.000134256 -0.00121888 0.00131966 -0.000486684 -0.0013862 -0.000271086 -0.000104831
-0.000927808 0.00160245 -0.000960044 0.00122324 -0.000961342 -0.00133217 -8.44508e-05 -0.00144264 -0.00141168 -0.00123287
-0.000901362 -0.000949017 -0.00136745 -8.69961e-05 -0.000722674 -8.65313e-05 -0.0015088 -0.000868132 -0.000304269 -0.00156456
-0.00109692 -0.000553686 0.00169399 -0.00149289 -0.00142178 0.00111752 -0.00144279 -8.23602e-05 -0.00141671 -0.0012887
-3.94083e-05 -0.000324721 -0.00143253 -3.78975e-05 -3.65548e-05 -0.000138358 -0.000185249 -0.00143039 -0.000811615 0.00188126
-0.00139918 -2.50032e-05 -0.000591585 -0.00100573 0.000939937 -0.00136924 -2.44998e-06 -0.00138075 -0.000184916 -0.00041545
-0.00119251 -0.00053519 -0.00145077 -5.0589e-06 -4.52377e-06 -0.00139295 0.0020055 -0.000778172 -0.00132667 1.74304e-05
-0.000203592 -0.000662405 -0.000804837 -0.00080471 -0.00144941 -0.00090938 0.000555305 -0.00141992 -0.000740908 -0.000477607
3.76629e-05 -1.34776e-05 4.97747e-06 -0.000705373 4.72135e-05 -0.0010638 -0.00143148 2.22232e-07 -0.000240282 -0.00141472
-4.35403e-05 -0.00127024 8.33039e-05 0.00200315 -0.000761463 -0.000537823 1.87632e-05 1.92516e-05 -0.00143888 -6.00681e-06
-0.000961847 -9.82181e-05 -0.000338486 -0.00137298 8.35101e-05 -0.00117435 -0.00145833 0.000102495 0.00160566 -0.000377679
0.000114817 0.00162064 0.00158625 7.64082e-05 4.88571e-06 -0.000105441 0.00167849 0.00153314 9.96848e-05 -0.00059425
-0.0013348 -0.000864404 -0.000618047 -0.000411269 1.48476e-05 -0.0014542 -0.000641091 -0.000640568 0.00177473 -0.00105288
0.000117854 -0.000578709 -0.00144969 0.00144336 -0.000545876 -0.00158621 -0.000170844 4.44317e-05 2.77717e-05 2.80856e-05
-0.00154398 -0.00126792 -0.00141962 0.00188723 0.000151472 0.00133654 -0.000718076 0.000154548 -0.000467098 -8.10232e-06
-0.00146529 -0.000942192 0.000152291 -0.000253915 7.65308e-05 8.02401e-05 5.70051e-05 0.000184201 -0.00137542 0.00206821
-0.00116106 0.00115629 -2.84243e-05 6.53056e-05 -0.00142802 0.00019586 0.00011313 -0.000253529 -0.000538489 -0.000825559
-0.000344062 -0.00133709 7.64471e-05 7.67239e-05 -0.000479658 0.000192773 0.000122342 -0.00103887 0.00218076 -8.65844e-05
-0.000493751 -0.000491683 0.000207241 -0.00143609 -0.000425313 0.000779445 -0.00038912 0.000155946 0.000218637 -0.00126509
0.000116687 8.50155e-05 0.000145825 -0.000674663 -0.000395004 0.000274917 -0.000927512 -0.000173421 0.000155397 0.00217832
-0.00147166 0.000147652 0.000197073 4.93954e-05 -0.00115648 0.000275744 0.000168613 0.000168957 0.000204273 0.000252447
-0.000498599 -0.000267469 -0.000156166 -0.000796358 0.000215454 0.000272342 0.00175904 0.000186646 0.00181181 0.00174539
1.49313e-05 -0.00102541 0.000212215 -0.00147126 0.00189624 -0.00036558 0.000300574 0.00173033 0.000228675 -0.000372753
-0.000369253 -0.000300327 0.00017509 -0.00161195 -0.000263154 -0.0016071 0.00199435 -0.00162922 0.000238621 0.00165653
0.000364276 -0.000343243 0.000243091 -0.000629707 -0.00159351 -0.00146826 -9.59895e-05 -0.000909633 -0.00140113 0.000232712
0.000252181 0.000252523 0.00210413 0.00028202 0.000360703 0.00154542 0.000157003 -0.00143926 0.000330003 -0.00140301
0.000298177 -0.00144306 0.000275351 0.000363489 -0.000448477 0.000319076 -0.000193804 0.00226591 0.000299903 -0.000770248
-0.00138613 0.00137028 0.000280619 0.000107282 -1.65393e-05 0.000389638 -0.00135588 0.000288576 0.000334153 0.000285642
-0.000215868 0.000450808 -0.000219693 -0.000215456 -0.00139788 0.00236438 0.000313888 -0.000290164 0.000321466 -0.000145335
0.000299457 0.000299724 -0.000601905 -0.00161672 -0.000107514 0.000986745 -0.00157278 -0.00125505 -1.63684e-05 -0.00158927
0.000363759 -0.00155001 0.00045839 -0.00140985 -0.00142753 0.000440638 0.000268931 0.000365585 -0.00137044 0.000342092
0.00044514 -0.00141213 -0.00141585 0.00236454 0.000330526 0.000433839 -0.000405837 -0.000125038 0.000474601 -0.00142766
0.000476906 0.000184534 0.000373051 -0.00142266 0.00033743 -0.00136531 0.000392342 0.000402905 0.000142864 0.000532392
-0.000993718 0.000405839 0.000406399 -0.00133143 0.000347082 0.000347318 -0.00143657 0.00195273 0.000475145 0.00203289
0.00190857 -5.60676e-05 -0.000241891 6.93216e-05 0.000409591 -0.00135938 -5.84738e-05 -5.44468e-05 0.00212202 0.000531284
0.00189301 1.18013e-05 0.000558386 4.56607e-05 -0.00158313 0.000358011 -0.00149161 -0.00139284 0.000381669 -0.00149472
0.00222104 -0.00136977 -0.00148553 0.000522879 0.00183519 0.000394325 -0.00138629 -0.00133761 0.000543664 0.000407828
0.000552909 -0.0013657 0.000402841 0.00232774 -6.57254e-05 -0.00133 -0.00138545 0.000465606 0.00173687 0.00045084
0.0002762 0.000481133 -0.000679122 0.000558172 -0.0014161 0.000501869 0.000415051 0.000415357 -0.00137269 0.000612314
0.000509592 -0.00135312 0.000582349 0.00247331 -0.00127173 0.00044076 0.00156467 0.00026224 0.000601122 -0.00130687
-0.00137424 0.000127151 0.000454888 0.000645628 7.68851e-05 0.000449593 0.000608884 -0.00130472 8.24285e-05 8.74793e-05
-0.00118893 0.000447458 0.00256259 0.000156419 0.000192337 -0.00132636 0.000482906 0.00118923 0.000456638 0.00051619
0.000640489 -0.0013102 0.000546653 0.000478938 0.000634429 0.000577443 -0.00103064 0.000602375 -0.00027875 0.00046963
0.000469954 0.000352915 -0.0012563 -0.00129743 0.000661201 0.000696462 0.00256456 0.000510369 0.000602585 0.000658457
-0.00130251 0.000688828 0.000517747 -0.00119007 -0.000833414 0.000729666 0.000347851 0.00047716 0.000710506 -0.00127415
0.000527765 0.000551359 0.000552121 0.000585976 0.000484561 0.000652444 0.000542676 0.000179509 -0.00108451 0.00216268
0.00225549 0.000190991 0.000197134 0.00066317 0.00208788 0.000741325 -0.000649502 0.000735311 0.000267652 -0.00123458