# vtk DataFile Version 2.0
tracks
ASCII
DATASET POLYDATA
POINTS 4820 float
-1.001 -0.05 0.0011 -0.651563 -0.0409863 0.00161422 -0.302131 -0.0318018 0.00213254 0.0472969 -0.0224461
0.00265492 0.39672 -0.012919 0.00318131 0.746185 -0.00321881 0.00371174 2.19662 0.0377655 0.00592951
3.64677 0.0876919 0.00703106 5.09656 0.147498 0.00714929 6.54618 0.211016 0.0071606 7.99846
0.278103 0.00710365 9.44895 0.348573 0.00698044 10.8993 0.422648 0.00679995 12.3494 0.500345
0.00656315 13.7993 0.581664 0.00627157 15.251 0.665782 0.00593008 16.7021 0.751369 0.00585374
18.1529 0.841677 0.00579359 19.6033 0.938164 0.00577791 21.0533 1.04089 0.00580683 22.5067
1.1502 0.00588065 22.8602 1.17835 0.00590961 23.2137 1.20686 0.00594625 23.5671 1.23593
0.00597753 23.9205 1.26556 0.00600339 24.2175 1.29093 0.00602052 25.3268 1.38719 0.00607016
26.4358 1.48853 0.00608385 27.5442 1.59498 0.00607014 28.6521 1.70658 0.00602884 29.7645
1.8239 0.00595947 31.2146 1.98364 0.00591523 32.6631 2.15776 0.00584464 34.1098 2.34643
0.00573945 35.5544 2.54981 0.00560103 37.016 2.77266 0.00538135 38.4767 3.01307 0.00506568
39.9337 3.27483 0.00448 41.3868 3.55797 0.00387267 42.8355 3.86217 0.00369998 43.816
4.08297 0.00388869 45.349 4.44407 0.00452752 46.8712 4.84821 0.00504065 48.3795 5.3013
0.00530707 49.8728 5.80192 0.00532326 51.4764 6.37426 0.00521946 51.8213 6.50482 0.00517122
52.1652 6.63767 0.00518726 52.5081 6.77333 0.00522074 52.8502 6.91079 0.00520939 53.1376
7.02659 0.00521671 54.2387 7.47128 0.00531131 55.3363 7.92447 0.00557731 56.4306 8.38572
0.00600066 57.5205 8.85703 0.00593014 58.6423 9.35597 0.00461646 58.9976 9.51182 0.00420342
59.3534 9.66647 0.00391383 59.7097 9.81991 0.00375148 60.0665 9.97219 0.00371447 60.4542
10.1362 0.00380833 61.5319 10.5877 0.00447723 62.6117 11.0342 0.00636027 63.6981 11.4646
0.00660222 64.7906 11.8792 0.00607941 65.8425 12.2619 0.00599553 66.379 12.4516 0.00601277
66.9174 12.6358 0.00598401 67.4577 12.8145 0.00591496 67.9994 12.9889 0.00582645 68.7067
13.2113 0.00569759 69.6051 13.4852 0.0055264 70.5077 13.7446 0.0053935 71.4165 13.9817
0.00562712 72.3306 14.1972 0.00621337 73.1975 14.3893 0.00699969 73.5722 14.4675 0.00743318
73.9471 14.5441 0.00797266 74.3223 14.6193 0.00861699 74.6978 14.693 0.00936605 75.1521
14.7804 0.010398 75.4897 14.8437 0.0112762 75.8274 14.9061 0.0122321 76.1653 14.9678
0.013258 76.5033 15.0286 0.0143539 76.84 15.0882 0.0155132 77.5667 15.2144 0.01811
78.2938 15.3383 0.0200554 79.0213 15.4599 0.0214016 79.7492 15.5795 0.0222147 80.4736
15.6963 0.022495 81.1987 15.811 0.022263 81.9245 15.9209 0.0214319 82.6511 16.0258
0.0203581 83.3783 16.1258 0.0192594 84.099 16.22 0.0181456 84.2631 16.2403 0.0179132
84.4273 16.2603 0.0177162 84.5916 16.2802 0.0175369 84.7558 16.3 0.0173755 84.9394
16.3219 0.017215 85.4932 16.3878 0.0167253 86.0472 16.452 0.0164082 86.6013 16.5145
0.0162593 87.1556 16.5755 0.0162782 87.7083 16.6347 0.0164641 89.1533 16.7852 0.0173543
90.5979 16.9396 0.0165715 92.042 17.0979 0.0141134 93.4877 17.2414 0.0148696 94.9332
17.3703 0.0170948 95.6688 17.4298 0.0164759 96.4051 17.4812 0.0161303 97.1419 17.5242
0.0160733 97.8791 17.5589 0.0163329 98.6114 17.5847 0.0166257 99.3425 17.6009 0.0163698
100.074 17.608 0.0157292 100.805 17.6072 0.0154652 101.536 17.5985 0.0156737 102.267
17.5821 0.0163301 103.723 17.5343 0.0185183 105.177 17.473 0.0180245 106.632 17.3975
0.0158419 108.085 17.3048 0.0161988 109.544 17.1939 0.0170121 110.995 17.0651 0.0171638
112.445 16.9249 0.0172455 113.893 16.7652 0.0173201 115.339 16.585 0.0173928 116.8
16.3971 0.0173592 117.093 16.3581 0.0173338 117.386 16.319 0.017308 117.678 16.2797
0.0172833 117.971 16.2402 0.0172594 118.25 16.2024 0.0172376 118.682 16.1436 0.0172078
119.113 16.0845 0.0172146 119.544 16.0249 0.0172248 119.976 15.965 0.0172385 120.408
15.9047 0.0172557 121.142 15.8015 0.0172336 121.876 15.6974 0.0171725 122.61 15.5926
0.0171091 123.344 15.4869 0.0170435 124.079 15.3803 0.0169752 125.525 15.1691 0.0168893
126.97 14.9475 0.0168049 128.413 14.7159 0.0167063 129.856 14.4849 0.016548 131.31
14.2486 0.0162632 132.482 14.043 0.0159501 133.653 13.8305 0.0156116 134.821 13.5969
0.015264 135.982 13.3356 0.0149025 136.396 13.2353 0.0148263 136.842 13.125 0.0147844
137.287 13.0121 0.0146994 137.732 12.8968 0.0146368 138.176 12.7788 0.0145963 138.626
12.6564 0.0145774 140.092 12.2482 0.0147242 141.554 11.8285 0.0147761 143.013 11.3962
0.0136538 144.468 10.9507 0.0129459 145.954 10.496 0.0136381 146.036 10.4713 0.0137572
146.119 10.4466 0.0138743 146.201 10.422 0.0139908 146.283 10.3974 0.0141068 146.367
10.3725 0.014224 147.71 9.97373 0.016117 149.054 9.57889 0.0186173 150.4 9.19491
0.0212578 151.757 8.8461 0.0224598 153.083 8.54013 0.0229671 153.954 8.36213 0.0228915
154.826 8.1926 0.0228248 155.699 8.03152 0.0227691 156.575 7.87896 0.0227244 157.935
7.65559 0.0226722 158.391 7.5878 0.0226647 158.847 7.52256 0.0226593 159.304 7.45984
0.0226566 159.761 7.39963 0.0226567 160.215 7.34239 0.0226596 161.673 7.16644 0.02268
163.132 7.00014 0.0226905 164.593 6.84387 0.0226867 166.054 6.69752 0.0226687 167.505
6.56204 0.0226365 168.961 6.43572 0.0225909 170.416 6.31042 0.0225506 171.872 6.18608
0.0225148 173.328 6.06405 0.0224866 174.783 5.94521 0.0224679 176.242 5.82911 0.0224589
177.701 5.71405 0.0224514 179.16 5.60007 0.0224453 180.62 5.48716 0.0224405 182.078
5.37591 0.0224372 183.52 5.26822 0.0224357 184.962 5.16468 0.0224349 186.404 5.06545
0.0224344 187.846 4.97055 0.0224344 189.286 4.88021 0.0224346 190.071 4.83335 0.0224351
190.856 4.78851 0.0224356 191.642 4.74572 0.0224361 192.427 4.70499 0.0224366 193.623
4.64612 0.0224375 194.202 4.61996 0.0224379 194.781 4.59492 0.0224384 195.36 4.57103
0.0224388 195.94 4.54827 0.0224393 196.519 4.52667 0.0224398 197.963 4.47567 0.0224401
199.408 4.43121 0.0224431 200.854 4.39316 0.0224461 202.299 4.36155 0.0224492 203.743
4.33644 0.0224522 205.192 4.31764 0.0224536 206.641 4.30664 0.0224536 208.09 4.30352
0.0224536 209.539 4.30829 0.0224536 210.988 4.32094 0.0224535 212.447 4.34174 0.0224555
213.906 4.36896 0.0224567 215.365 4.40477 0.0224578 216.823 4.44922 0.022459 218.283
4.50242 0.02246 219.743 4.56431 0.022461 221.2 4.67511 0.022462 222.416 4.81036
0.0224628 223.863 5.01555 0.0224637 225.582 5.30572 0.0224647 228.466 5.87961 0.0224654
231.342 6.49127 0.0224676 234.21 7.13498 0.0224697 237.073 7.80647 0.0224716 240
8.43724 0.0224733 -1.001 -0.05 0.0537316 -0.651572 -0.0409897 0.054245 -0.302149 -0.0318086
0.0547626 0.0472692 -0.0224563 0.0552842 0.396683 -0.0129327 0.0558099 0.746139 -0.00323593 0.0563396
2.19657 0.0378634 0.0585526 3.64673 0.0877207 0.0596455 5.09652 0.147441 0.0597523 6.54615
0.210883 0.0597507 7.99841 0.277894 0.0596808 9.4489 0.348377 0.0595485 10.8992 0.422345
0.0593627 12.3493 0.499935 0.0591206 13.7993 0.581148 0.0588237 15.2509 0.665142 0.0584768
16.702 0.75073 0.0583896 18.1528 0.841017 0.058322 19.6033 0.937484 0.0582988 21.0533
1.04019 0.0583202 22.5067 1.14948 0.0583864 22.8659 1.17808 0.0584144 23.2251 1.20708
0.0584494 23.5843 1.23665 0.0584789 23.9434 1.2668 0.0585028 24.2436 1.29249 0.058518
25.3478 1.3884 0.0585622 26.4514 1.48938 0.0584952 27.5546 1.59543 0.0584009 28.6573
1.70659 0.0582791 29.7644 1.82341 0.0581291 31.2147 1.98316 0.0580837 32.6633 2.15713
0.0580957 34.1101 2.34566 0.0580737 35.5548 2.5489 0.0580189 37.0165 2.77159 0.0578843
38.4771 3.012 0.0575667 39.9341 3.27391 0.0569033 41.387 3.55719 0.0562193 42.8357
3.86152 0.05597 43.8091 4.08082 0.0561058 45.3437 4.44219 0.0567449 46.8677 4.84618
0.0572611 48.3778 5.29923 0.0575301 49.8729 5.79991 0.0575485 51.4779 6.37228 0.0574464
51.8225 6.50278 0.057402 52.1663 6.63539 0.0574153 52.509 6.77074 0.0574512 52.851
6.90791 0.0574423 53.1405 7.02431 0.0574547 54.2413 7.46931 0.057485 55.3388 7.92243
0.0577642 56.433 8.38362 0.0582006 57.5229 8.85486 0.0581428 58.6439 9.35317 0.056862
58.9999 9.50944 0.0564486 59.3562 9.66478 0.0560959 59.713 9.81891 0.0558715 60.0704
9.97186 0.0557736 60.4558 10.1354 0.0558023 61.5332 10.5867 0.0564434 62.6128 11.0329
0.0582908 63.6987 11.4633 0.0585482 64.7909 11.8777 0.0580376 65.8425 12.2604 0.0579651
66.3797 12.4504 0.057946 66.9188 12.6351 0.0578239 67.4597 12.8143 0.0576622 68.0021
12.9891 0.0574818 68.7081 13.2114 0.057235 69.6062 13.4852 0.0570622 70.5084 13.7448
0.056941 71.4168 13.9822 0.0571863 72.3306 14.1979 0.0577841 73.1975 14.3905 0.0585815
73.5707 14.4684 0.059033 73.9441 14.5446 0.0595974 74.3179 14.6194 0.0602659 74.6919
14.6928 0.0610382 75.1474 14.7803 0.0621043 75.4859 14.8438 0.0630016 75.8247 14.9064
0.064017 76.1635 14.9681 0.0651028 76.5025 15.029 0.0662591 76.84 15.0886 0.0674785
77.5667 15.2148 0.0700369 78.2938 15.3387 0.071875 79.0213 15.4604 0.0731142 79.7492
15.5799 0.0738206 80.4736 15.6967 0.0739951 81.1986 15.8114 0.0736847 81.9243 15.922
0.072511 82.6508 16.0275 0.0710964 83.3779 16.1282 0.0696592 84.0989 16.2231 0.0682117
84.2584 16.2428 0.0679855 84.418 16.2621 0.0678542 84.5776 16.2813 0.0677398 84.7372
16.3004 0.0676423 84.921 16.3223 0.0675131 85.4785 16.3886 0.0670124 86.0361 16.4532
0.0666998 86.594 16.5162 0.0665575 87.152 16.5776 0.0665853 87.7083 16.6371 0.0667822
89.1533 16.7875 0.0676084 90.5979 16.9418 0.0668698 92.042 17.1 0.0644549 93.4877
17.2437 0.0651825 94.9333 17.3727 0.0673682 95.6689 17.4322 0.0667367 96.4051 17.4841
0.0664148 97.1418 17.5276 0.06638 97.879 17.5627 0.0666602 98.6114 17.589 0.0669847
99.3425 17.6052 0.0667286 100.074 17.6119 0.066036 100.805 17.6105 0.06573 101.536
17.6014 0.0658953 102.267 17.5845 0.0665074 103.723 17.5366 0.0687204 105.178 17.4754
0.0682569 106.632 17.4 0.0660907 108.085 17.3073 0.0664646 109.544 17.1963 0.0672469
110.995 17.0676 0.0673968 112.445 16.9272 0.0674735 113.893 16.7674 0.0675426 115.338
16.5873 0.0676084 116.799 16.3994 0.0675679 117.102 16.3591 0.0675505 117.405 16.3186
0.0675294 117.708 16.2779 0.0675093 118.011 16.237 0.0674902 118.3 16.1979 0.067473
118.721 16.1404 0.0674593 119.143 16.0826 0.0675759 119.564 16.0245 0.0676964 119.985
[...]
POINT_DATA 4820
FIELD attributes 4
age 1 4820 float
0 0.0462228 0.0924527 0.138689 0.184933 0.23119 0.423208 0.615189 0.807555 1.00013 1.19328
1.3864 1.57984 1.7736 1.96768 2.16235 2.35723 2.55269 2.74867 2.94516 3.14268
3.19085 3.23909 3.28737 3.3357 3.37636 3.52835 3.68078 3.83367 3.98699 4.14145
4.34333 4.54627 4.75027 4.95528 5.1633 5.37165 5.58126 5.79169 6.00212 6.14492
6.36853 6.59029 6.80919 7.02492 7.25202 7.29977 7.34725 7.39431 7.44084 7.47975
7.62843 7.77491 7.91923 8.06107 8.20473 8.24938 8.29372 8.33774 8.38145 8.42853
8.55825 8.68519 8.80608 8.92272 9.03236 9.08766 9.14267 9.19737 9.2517 9.32197
9.41014 9.49731 9.58411 9.67047 9.75192 9.78692 9.82192 9.85692 9.89192 9.93422
9.96562 9.997 10.0284 10.0597 10.0909 10.1581 10.2252 10.2925 10.3597 10.4267
10.4937 10.5609 10.6282 10.6956 10.7624 10.7776 10.7928 10.808 10.8232 10.8401
10.8912 10.9423 10.9932 11.044 11.0945 11.2263 11.3566 11.4856 11.6133 11.7401
11.805 11.87 11.9351 12.0001 12.0647 12.129 12.1934 12.2577 12.322 12.3861
12.5136 12.6405 12.7672 12.8943 13.0232 13.1529 13.2834 13.4151 13.548 13.6838
13.7114 13.739 13.7667 13.7944 13.8208 13.8619 13.903 13.9443 13.9857 14.0273
14.0982 14.1693 14.2406 14.3121 14.3839 14.5254 14.6675 14.8099 14.9526 15.096
15.2113 15.3273 15.4436 15.5599 15.6019 15.6475 15.6933 15.7393 15.7855 15.8325
15.9867 16.1425 16.3014 16.4677 16.644 16.654 16.6641 16.6741 16.6842 16.6944
16.8588 17.0263 17.1969 17.3703 17.5408 17.6534 17.7663 17.8794 17.9927 18.1688
18.2279 18.287 18.3461 18.4052 18.4639 18.6523 18.8396 19.0262 19.212 19.3957
19.5791 19.762 19.9444 20.1264 20.3079 20.4895 20.6713 20.8533 21.0356 21.2179
21.3983 21.5792 21.7605 21.9422 22.1238 22.2231 22.3224 22.4219 22.5214 22.673
22.7465 22.8201 22.8937 22.9674 23.0411 23.2251 23.4093 23.5937 23.7783 23.9629
24.1483 24.3341 24.52 24.7058 24.8916 25.0788 25.2664 25.4541 25.6419 25.8299
26.018 26.2083 26.3695 26.5634 26.7955 27.1873 27.5719 27.9608 28.3528 28.7481
0 0.0462197 0.0924464 0.13868 0.184921 0.231175 0.423192 0.615178 0.807541 1.00011
1.19325 1.38638 1.57982 1.77357 1.96764 2.1623 2.35718 2.55263 2.7486 2.94508
3.1426 3.19156 3.24059 3.28965 3.33877 3.37986 3.53114 3.68286 3.83503 3.98763
4.14136 4.34324 4.54619 4.75018 4.95519 5.1632 5.37153 5.58111 5.79149 6.00188
6.14362 6.36746 6.58947 6.8086 7.02457 7.25185 7.29957 7.347 7.39404 7.44054
7.47973 7.62837 7.7749 7.91928 8.06116 8.20479 8.24953 8.29399 8.33814 8.38196
8.42884 8.55852 8.68542 8.80633 8.92299 9.03265 9.08802 9.14312 9.19791 9.25233
9.32251 9.41065 9.4978 9.58458 9.67092 9.75238 9.78724 9.82211 9.85697 9.89182
9.93423 9.96573 9.9972 10.0287 10.0601 10.0914 10.1585 10.2257 10.2929 10.3601
10.427 10.494 10.5613 10.6286 10.696 10.7628 10.7775 10.7923 10.8071 10.8219
10.8388 10.8903 10.9416 10.9929 11.044 11.0949 11.2267 11.3571 11.486 11.6138
11.7407 11.8056 11.8706 11.9356 12.0007 12.0653 12.1296 12.194 12.2584 12.3226
12.3868 12.5143 12.6413 12.768 12.8951 13.0241 13.1537 13.2842 13.4159 13.5488
13.6846 13.7131 13.7417 13.7704 13.799 13.8264 13.8665 13.9067 13.947 13.9875
14.0281 14.0991 14.1702 14.2415 14.313 14.3848 14.5264 14.6684 14.8109 14.9535
15.0969 15.2133 15.3304 15.4477 15.5651 15.6061 15.6511 15.6962 15.7415 15.787
15.8334 15.9876 16.1435 16.3026 16.469 16.6453 16.6554 16.6656 16.6757 16.6859
16.6962 16.8604 17.0278 17.1984 17.3715 17.542 17.6552 17.7687 17.8824 17.9964
18.1746 18.2327 18.2909 18.3491 18.4073 18.4651 18.6534 18.8407 19.0273 19.2131
19.3968 19.5802 19.7631 19.9455 20.1275 20.309 20.4906 20.6724 20.8544 21.0366
21.219 21.3994 21.5803 21.7615 21.9432 22.1249 22.227 22.3292 22.4315 22.5339
22.6912 22.7613 22.8314 22.9016 22.9719 23.0421 23.2261 23.4103 23.5946 23.7793
23.9638 24.1493 24.335 24.5208 24.7066 24.8924 25.0796 25.2672 25.4548 25.6425
25.8305 26.0186 26.2088 26.3643 26.5581 26.7959 27.1877 27.5717 27.9602 28.3517
28.7463 0 0.0462166 0.0924401 0.138671 0.184908 0.231159 0.423175 0.615166 0.807527
1.0001 1.19323 1.38636 1.57979 1.77354 1.9676 2.16225 2.35713 2.55258 2.74854
2.94501 3.14252 3.19227 3.24208 3.29193 3.34183 3.38338 3.53395 3.68496 3.83639
3.98827 4.14126 4.34316 4.5461 4.75009 4.95511 5.1631 5.37142 5.58095 5.79129
6.00164 6.14233 6.3664 6.58864 6.80802 7.02422 7.25169 7.29937 7.34676 7.39377
7.44024 7.47973 7.62833 7.77491 7.91934 8.06126 8.20486 8.24969 8.29427 8.33854
8.38249 8.42915 8.5588 8.68566 8.80659 8.92327 9.03294 9.08838 9.14358 9.19846
9.25297 9.32306 9.41117 9.49829 9.58505 9.67137 9.75284 9.78758 9.8223 9.85702
9.89174 9.93426 9.96584 9.9974 10.0289 10.0605 10.0918 10.159 10.2261 10.2933
10.3605 10.4274 10.4944 10.5616 10.6289 10.6963 10.7632 10.7775 10.7919 10.8062
10.8205 10.8373 10.8891 10.9409 10.9925 11.044 11.0953 11.227 11.3575 11.4865
11.6143 11.7412 11.8062 11.8712 11.9362 12.0013 12.066 12.1303 12.1947 12.2591
12.3233 12.3875 12.515 12.642 12.7687 12.896 13.0249 13.1546 13.2851 13.4167
13.5496 13.6854 13.715 13.7445 13.7742 13.8039 13.8322 13.8713 13.9105 13.9499
13.9893 14.029 14.0999 14.1711 14.2424 14.314 14.3858 14.5273 14.6694 14.8118
14.9545 15.0979 15.2154 15.3335 15.4519 15.5704 15.6105 15.6547 15.6991 15.7437
15.7885 15.8342 15.9885 16.1446 16.3037 16.4703 16.6466 16.6569 16.6671 16.6774
16.6877 16.6981 16.8622 17.0294 17.1998 17.3729 17.5431 17.657 17.7711 17.8856
18.0002 18.1807 18.2378 18.295 18.3522 18.4094 18.4662 18.6546 18.8419 19.0284
19.2143 19.3979 19.5814 19.7643 19.9466 20.1286 20.3101 20.4916 20.6734 20.8554
21.0377 21.22 21.4004 21.5813 21.7626 21.9442 22.1259 22.2311 22.3363 22.4416
22.5471 22.7104 22.7769 22.8434 22.9099 22.9765 23.0431 23.2271 23.4112 23.5956
23.7802 23.9648 24.1502 24.3359 24.5217 24.7075 24.8932 25.0804 25.2679 25.4555
25.6432 25.8312 26.0167 26.2043 26.3582 26.5494 26.7963 27.188 27.5715 27.9595
28.3505 28.7444 0 0.0462134 0.0924339 0.138661 0.184896 0.231143 0.423159 0.615155
0.807512 1.00008 1.19321 1.38633 1.57976 1.7735 1.96756 2.1622 2.35707 2.55252
2.74848 2.94494 3.14244 3.19298 3.24357 3.29421 3.3449 3.38691 3.53677 3.68705
3.83777 3.98891 4.14116 4.34308 4.54602 4.75001 4.95502 5.163 5.37131 5.58082
5.79112 6.00144 6.14106 6.36535 6.58783 6.80744 7.02388 7.25152 7.29918 7.34653
7.39351 7.43997 7.47976 7.62831 7.77494 7.91941 8.06138 8.20494 8.24986 8.29457
8.33896 8.38304 8.42949 8.5591 8.68592 8.80687 8.92356 9.03327 9.08878 9.14406
9.19904 9.25364 9.32363 9.41172 9.49882 9.58556 9.67185 9.75334 9.78794 9.82252
9.8571 9.89168 9.9343 9.96598 9.99763 10.0293 10.0609 10.0923 10.1595 10.2266
10.2937 10.3609 10.4278 10.4948 10.562 10.6293 10.6967 10.7636 10.7775 10.7914
10.8053 10.8192 10.8355 10.8878 10.94 10.992 11.044 11.0957 11.2275 11.3579
11.487 11.6148 11.7418 11.8067 11.8718 11.9368 12.002 12.0666 12.131 12.1954
12.2598 12.324 12.3882 12.5157 12.6428 12.7695 12.8968 13.0258 13.1555 13.2859
13.4176 13.5505 13.6863 13.7169 13.7475 13.7782 13.8089 13.8382 13.8763 13.9145
13.9528 13.9913 14.0298 14.1008 14.172 14.2434 14.3149 14.3867 14.5283 14.6703
14.8128 14.9555 15.0989 15.2175 15.3368 15.4563 15.576 15.6151 15.6586 15.7023
15.7461 15.7902 15.8351 15.9895 16.1457 16.305 16.4716 16.648 16.6584 16.6688
16.6792 16.6896 16.7002 16.8641 17.0312 17.2014 17.3743 17.5443 17.6588 17.7738
17.889 18.0044 18.1873 18.2433 18.2994 18.3555 18.4117 18.4674 18.6557 18.843
19.0296 19.2154 19.3991 19.5825 19.7654 19.9478 20.1297 20.3111 20.4927 20.6745
20.8565 21.0388 21.2211 21.4015 21.5824 21.7636 21.9453 22.127 22.2354 22.3439
22.4525 22.5612 22.7314 22.7938 22.8564 22.9189 22.9815 23.0441 23.2281 23.4122
23.5966 23.7812 23.9657 24.1512 24.3368 24.5226 24.7083 24.894 25.0812 25.2687
25.4562 25.6439 25.8318 26.0118 26.1936 26.351 26.5364 26.7966 27.1883 27.5713
27.9587 28.3493 28.7425 0 0.0462103 0.0924276 0.138652 0.184883 0.231128 0.423142
0.615143 0.807498 1.00006 1.19318 1.38631 1.57973 1.77347 1.96752 2.16216 2.35702
2.55246 2.74841 2.94487 3.14236 3.19369 3.24507 3.29649 3.34797 3.39046 3.5396
3.68916 3.83915 3.98956 4.14107 4.34301 4.54594 4.74993 4.95494 5.1629 5.37121
5.5807 5.79097 6.00126 6.13979 6.36431 6.58702 6.80687 7.02354 7.25136 7.29899
7.34629 7.39326 7.43971 7.4798 7.62831 7.77498 7.91949 8.0615 8.20502 8.25004
8.29488 8.3394 8.3836 8.42984 8.55941 8.68619 8.80715 8.92385 9.0336 9.08918
9.14456 9.19963 9.25432 9.32421 9.41228 9.49935 9.58607 9.67235 9.75385 9.78831
9.82275 9.8572 9.89164 9.93435 9.96613 9.99788 10.0296 10.0613 10.0928 10.16
10.2271 10.2942 10.3613 10.4282 10.4952 10.5624 10.6297 10.6971 10.764 10.7775
10.7909 10.8044 10.8178 10.8334 10.8862 10.9389 10.9915 11.044 11.0961 11.2279
11.3584 11.4875 11.6153 11.7424 11.8073 11.8724 11.9375 12.0026 12.0673 12.1317
12.1961 12.2605 12.3248 12.3889 12.5165 12.6436 12.7704 12.8977 13.0267 13.1564
13.2868 13.4185 13.5513 13.6872 13.7188 13.7505 13.7823 13.8142 13.8445 13.8815
13.9187 13.9559 13.9932 14.0307 14.1017 14.1729 14.2443 14.3159 14.3877 14.5293
14.6714 14.8138 14.9565 15.0999 15.2197 15.3401 15.4609 15.5817 15.6198 15.6626
15.7055 15.7486 15.7918 15.8359 15.9904 16.1468 16.3062 16.4729 16.6493 16.6599
16.6705 16.6811 16.6917 16.7025 16.8662 17.033 17.203 17.3757 17.5454 17.6608
17.7765 17.8925 18.0088 18.1943 18.2492 18.3041 18.359 18.414 18.4685 18.6568
18.8441 19.0307 19.2166 19.4002 19.5836 19.7665 19.9489 20.1308 20.3122 20.4938
20.6756 20.8576 21.0398 21.2221 21.4025 21.5834 21.7647 21.9463 22.128 22.2398
22.3517 22.4638 22.5759 22.7535 22.8117 22.87 22.9284 22.9867 23.0451 23.229
23.4132 23.5975 23.7821 23.9666 24.1521 24.3377 24.5234 24.7091 24.8948 25.082
25.2694 25.4569 25.6445 25.8324 26.0066 26.1825 26.3432 26.5227 26.797 27.1886
27.5711 27.958 28.348 28.7405 0 0.0462072 0.0924214 0.138643 0.184871 0.231112
0.423125 0.615132 0.807484 1.00005 1.19316 1.38629 1.5797 1.77344 1.96748 2.16211
2.35697 2.5524 2.74835 2.9448 3.14229 3.19439 3.24656 3.29878 3.35105 3.39402
3.54245 3.69129 3.84054 3.99022 4.14099 4.34293 4.54587 4.74985 4.95486 5.16281
5.37112 5.58057 5.79082 6.00108 6.13855 6.36329 6.58624 6.80632 7.02321 7.25121
7.29881 7.34608 7.39302 7.43947 7.47987 7.62833 7.77504 7.91959 8.06164 8.20512
8.25022 8.2952 8.33985 8.38418 8.43021 8.55975 8.68647 8.80745 8.92416 9.03395
9.0896 9.14507 9.20023 9.25502 9.32481 9.41285 9.4999 9.5866 9.67285 9.75436
9.7887 9.823 9.85731 9.89161 9.93435 9.96623 9.99809 10.0299 10.0617 10.0933
10.1605 10.2276 10.2946 10.3618 10.4286 10.4956 10.5628 10.6301 10.6975 10.7645
10.7774 10.7904 10.8034 10.8163 10.8313 10.8846 10.9378 10.9909 11.0439 11.0966
11.2283 11.3589 11.488 11.6159 11.743 11.808 11.873 11.9381 12.0033 12.068
12.1324 12.1968 12.2612 12.3255 12.3897 12.5173 12.6445 12.7713 12.8986 13.0277
13.1573 13.2877 13.4194 13.5523 13.6881 13.7208 13.7537 13.7866 13.8196 13.8509
13.8869 13.9229 13.959 13.9953 14.0317 14.1026 14.1739 14.2453 14.3169 14.3888
14.5303 14.6724 14.8149 14.9576 15.1009 15.222 15.3436 15.4655 15.5876 15.6247
15.6666 15.7088 15.7511 15.7935 15.8368 15.9914 16.1479 16.3074 16.4742 16.6507
16.6615 16.6723 16.6831 16.694 16.705 16.8684 17.035 17.2048 17.3771 17.5466
17.6628 17.7794 17.8963 18.0134 18.2016 18.2553 18.3089 18.3626 18.4164 18.4697
18.658 18.8453 19.0319 19.2177 19.4014 19.5848 19.7676 19.95 20.1319 20.3133
20.4949 20.6767 20.8587 21.0409 21.2232 21.4036 21.5845 21.7657 21.9474 22.1291
22.2445 22.3599 22.4755 22.5912 22.7768 22.8306 22.8844 22.9383 22.9922 23.0461
23.23 23.4142 23.5985 23.783 23.9676 24.153 24.3386 24.5243 24.71 24.8956
25.0828 25.2701 25.4576 25.6451 25.833 26.0013 26.1711 26.3351 26.5085 26.7973
27.1889 27.5709 27.9573 28.3468 28.7386 0 0.0462041 0.0924151 0.138633 0.184858
0.231096 0.423109 0.615121 0.807469 1.00003 1.19314 1.38627 1.57968 1.7734 1.96744
2.16206 2.35692 2.55234 2.74828 2.94473 3.14221 3.1951 3.24806 3.30106 3.35413
3.3976 3.54531 3.69342 3.84194 3.99088 4.1409 4.34286 4.5458 4.74978 4.95478
5.16272 5.37103 5.58045 5.79066 6.00089 6.13733 6.36229 6.58546 6.80577 7.02289
7.25106 7.29864 7.34587 7.39279 7.43924 7.47988 7.6283 7.77507 7.91967 8.06177
8.20521 8.2504 8.2955 8.34028 8.38473 8.43054 8.56005 8.68673 8.80774 8.92446
9.03429 9.09001 9.14557 9.20082 9.25569 9.32538 9.41339 9.50043 9.58711 9.67335
9.75488 9.78907 9.82323 9.85739 9.89155 9.93429 9.9663 9.99827 10.0302 10.0622
10.0938 10.161 10.2281 10.2951 10.3622 10.429 10.496 10.5632 10.6306 10.6979
10.765 10.7774 10.7898 10.8023 10.8147 10.829 10.8829 10.9366 10.9903 11.0438
11.097 11.2288 11.3594 11.4886 11.6165 11.7437 11.8086 11.8737 11.9388 12.004
12.0687 12.1331 12.1976 12.262 12.3263 12.3905 12.5181 12.6453 12.7721 12.8995
13.0286 13.1582 13.2887 13.4203 13.5532 13.689 13.7229 13.7568 13.7909 13.825
13.8575 13.8923 13.9272 13.9622 13.9974 14.0326 14.1036 14.1748 14.2463 14.3179
14.3898 14.5314 14.6734 14.8159 14.9586 15.102 15.2243 15.3471 15.4703 15.5935
15.6297 15.6708 15.7121 15.7536 15.7953 15.8377 15.9923 16.149 16.3087 16.4756
16.6521 16.6631 16.6742 16.6852 16.6963 16.7075 16.8707 17.037 17.2065 17.3786
17.5478 17.6649 17.7824 17.9002 18.0182 18.2093 18.2616 18.314 18.3664 18.4188
18.4708 18.6591 18.8464 19.033 19.2189 19.4025 19.5859 19.7688 19.9511 20.133
20.3144 20.496 20.6777 20.8597 21.0419 21.2242 21.4046 21.5855 21.7668 21.9484
22.1301 22.2492 22.3684 22.4877 22.6071 22.8013 22.8504 22.8995 22.9487 22.9979
23.0471 23.231 23.4151 23.5994 23.784 23.9685 24.1539 24.3395 24.5251 24.7108
24.8964 25.0835 25.2709 25.4583 25.6458 25.8335 25.9958 26.1594 26.3246 26.3253
26.7951 27.1876 27.5709 27.9585 28.3489 28.7408 0 0.0462009 0.0924089 0.138624
0.184846 0.231081 0.423093 0.61511 0.807455 1.00001 1.19312 1.38625 1.57965 1.77337
1.96741 2.16201 2.35687 2.55229 2.74822 2.94466 3.14213 3.19581 3.24955 3.30335
3.3572 3.40118 3.54817 3.69556 3.84334 3.99154 4.14082 4.3428 4.54573 4.74971
4.95471 5.16263 5.37093 5.58033 5.79051 6.0007 6.13612 6.36129 6.5847 6.80523
7.02257 7.25091 7.29847 7.34567 7.39258 7.43903 7.47984 7.62823 7.77506 7.91973
8.06189 8.20531 8.25058 8.29579 8.34068 8.38524 8.43084 8.56032 8.68698 8.80801
8.92476 9.03464 9.09041 9.14605 9.20138 9.25634 9.32591 9.41392 9.50094 9.58761
9.67385 9.7554 9.78944 9.82345 9.85745 9.89146 9.93419 9.96633 9.99843 10.0305
10.0626 10.0944 10.1616 10.2286 10.2956 10.3627 10.4295 10.4965 10.5637 10.631
10.6984 10.7654 10.7773 10.7892 10.801 10.8129 10.8264 10.8809 10.9353 10.9896
11.0437 11.0975 11.2293 11.3599 11.4891 11.6171 11.7443 11.8093 11.8743 11.9395
12.0046 12.0694 12.1338 12.1983 12.2628 12.3271 12.3913 12.5189 12.6462 12.773
12.9004 13.0296 13.1592 13.2896 13.4212 13.5541 13.6899 13.725 13.7601 13.7954
13.8307 13.8642 13.8979 13.9317 13.9655 13.9995 14.0336 14.1045 14.1758 14.2473
14.3189 14.3909 14.5324 14.6745 14.817 14.9597 15.1031 15.2266 15.3507 15.4752
15.5997 15.6348 15.6751 15.7156 15.7562 15.797 15.8386 15.9933 16.1502 16.3099
16.477 16.6535 16.6648 16.6761 16.6874 16.6987 16.7102 16.8731 17.0391 17.2084
17.3802 17.549 17.667 17.7855 17.9042 18.0232 18.2173 18.2683 18.3192 18.3703
18.4213 18.472 18.6603 18.8476 19.0341 19.22 19.4036 19.587 19.7699 19.9522
20.1341 20.3155 20.4971 20.6788 20.8608 21.043 21.2253 21.4057 21.5865 21.7678
21.9494 22.1311 22.2541 22.3771 22.5003 22.6236 22.8269 22.8711 22.9153 22.9596
23.0038 23.048 23.232 23.4161 23.6004 23.7849 23.9694 24.1548 24.3404 24.526
24.7116 24.8972 25.0843 25.2716 25.459 25.6464 25.8341 25.9903 26.1475 26.3063
26.3126 26.7953 27.1877 27.5706 27.9576 28.3475 28.7388 0 0.0461978 0.0924026
0.138614 0.184833 0.231067 0.423078 0.6151 0.807443 0.999997 1.19309 1.38622 1.57962
1.77334 1.96737 2.16196 2.35682 2.55223 2.74816 2.94459 3.14205 3.19651 3.25103
3.3056 3.36024 3.40472 3.551 3.69767 3.84473 3.9922 4.14074 4.34273 4.54566
4.74964 4.95464 5.16255 5.37084 5.58021 5.79036 6.00052 6.1349 6.36029 6.58392
6.80469 7.02225 7.25076 7.2983 7.34548 7.39237 7.43881 7.47975 7.62813 7.77504
7.91978 8.06201 8.20543 8.25076 8.29605 8.34104 8.38571 8.43123 8.56065 8.68723
8.80827 8.92501 9.0349 9.09076 9.14652 9.20196 9.25702 9.32652 9.41447 9.50146
9.58809 9.67429 9.75584 9.78977 9.82366 9.85755 9.89144 9.9341 9.96635 9.99857
10.0308 10.0629 10.0949 10.1621 10.229 10.296 10.3631 10.4298 10.4968 10.564
10.6314 10.6988 10.7658 10.7772 10.7886 10.8 10.8114 10.8243 10.8793 10.9342
10.989 11.0436 11.0979 11.2297 11.3604 11.4896 11.6176 11.7449 11.8098 11.8749
11.9401 12.0053 12.0701 12.1345 12.199 12.2635 12.3278 12.392 12.5197 12.647
12.7738 12.9013 13.0305 13.1601 13.2905 13.4221 13.555 13.6908 13.727 13.7632
13.7996 13.836 13.8706 13.9032 13.9359 13.9686 14.0015 14.0344 14.1054 14.1767
14.2482 14.3199 14.3918 14.5334 14.6755 14.818 14.9607 15.1041 15.2288 15.3542
15.4798 15.6056 15.6395 15.6791 15.7188 15.7587 15.7987 15.8395 15.9942 16.1512
16.3111 16.4782 16.6548 16.6663 16.6778 16.6893 16.7009 16.7126 16.8752 17.041
17.21 17.3816 17.55 17.6689 17.7883 17.9079 18.0278 18.2248 18.2744 18.3241
18.3739 18.4236 18.473 18.6613 18.8486 19.0352 19.2211 19.4047 19.5881 19.7709
19.9532 20.1351 20.3165 20.4981 20.6798 20.8618 21.044 21.2262 21.4066 21.5875
21.7688 21.9504 22.1321 22.2586 22.3852 22.5119 22.6388 22.8508 22.8904 22.93
22.9696 23.0093 23.0489 23.2329 23.417 23.6013 23.7858 23.9703 24.1557 24.3412
24.5268 24.7123 24.8979 25.085 25.2723 25.4596 25.6469 25.8346 25.9852 26.1367
26.2898 26.3011 26.7955 27.1878 27.5702 27.9568 28.3462 28.7368 0 0.0461947
0.0923964 0.138605 0.184821 0.231053 0.423063 0.61509 0.80743 0.999982 1.19307 1.3862
1.5796 1.77331 1.96733 2.16192 2.35677 2.55217 2.74809 2.94452 3.14198 3.19721
3.2525 3.30786 3.36327 3.40826 3.55383 3.69978 3.84612 3.99286 4.14066 4.34267
4.54559 4.74957 4.95457 5.16246 5.37075 5.58009 5.79021 6.00033 6.13368 6.35929
6.58315 6.80414 7.02194 7.25061 7.29813 7.34529 7.39216 7.4386 7.47967 7.62803
7.77501 7.91983 8.06214 8.20554 8.25095 8.2963 8.3414 8.38617 8.43162 8.56098
8.6875 8.80852 8.92525 9.03516 9.09111 9.14698 9.20253 9.2577 9.32712 9.41504
9.50198 9.58857 9.67472 9.75627 9.79009 9.82388 9.85765 9.89144 9.934 9.96637
9.9987 10.031 10.0633 10.0953 10.1625 10.2295 10.2964 10.3635 10.4302 10.4972
10.5644 10.6317 10.6991 10.7662 10.7772 10.7882 10.7991 10.8101 10.8225 10.878
10.9333 10.9885 11.0436 11.0983 11.2301 11.3608 11.4901 11.6181 11.7454 11.8104
11.8755 11.9406 12.0059 12.0707 12.1351 12.1997 12.2641 12.3285 12.3927 12.5204
12.6477 12.7746 12.9021 13.0314 13.1609 13.2914 13.4229 13.5558 13.6916 13.7288
13.7662 13.8036 13.8411 13.8767 13.9082 13.9399 13.9716 14.0034 14.0353 14.1062
14.1776 14.2491 14.3208 14.3928 14.5344 14.6764 14.819 14.9617 15.105 15.2309
15.3575 15.4843 15.6113 15.6441 15.6829 15.7219 15.761 15.8002 15.8402 15.9951
16.1523 16.3122 16.4795 16.656 16.6677 16.6794 16.6911 16.7029 16.7148 16.8772
17.0428 17.2115 17.3829 17.5511 17.6708 17.7909 17.9114 18.032 18.2317 18.2802
18.3287 18.3773 18.4258 18.4741 18.6624 18.8497 19.0362 19.2221 19.4057 19.5891
19.7719 19.9542 20.1361 20.3175 20.499 20.6808 20.8627 21.0449 21.2272 21.4076
21.5884 21.7697 21.9513 22.133 22.2628 22.3926 22.5226 22.6527 22.8729 22.9082
22.9436 22.979 23.0144 23.0498 23.2337 23.4178 23.6021 23.7866 23.9711 24.1565
24.342 24.5275 24.7131 24.8986 25.0857 25.2729 25.4602 25.6475 25.8351 25.9808
26.1272 26.2752 26.2901 26.7957 27.188 27.5699 27.956 28.345 28.7349 0
0.0461916 0.0923901 0.138596 0.184808 0.231039 0.423048 0.61508 0.807417 0.999967 1.19305
1.38618 1.57957 1.77327 1.96729 2.16187 2.35672 2.55212 2.74803 2.94445 3.1419
3.19791 3.25398 3.31012 3.36631 3.41179 3.55665 3.70189 3.84751 3.99352 4.14058
4.34261 4.54553 4.7495 4.9545 5.16238 5.37067 5.57997 5.79006 6.00015 6.13249
6.35831 6.5824 6.80361 7.02163 7.25047 7.29797 7.34512 7.39195 7.4384 7.47957
7.62792 7.77498 7.91988 8.06225 8.20565 8.25112 8.29655 8.34175 8.38662 8.43201
8.5613 8.68775 8.80877 8.92549 9.03542 9.09145 9.14743 9.20309 9.25838 9.32772
9.41559 9.50249 9.58904 9.67515 9.7567 9.79041 9.82409 9.85775 9.89142 9.93388
9.96637 9.99882 10.0312 10.0636 10.0958 10.163 10.2299 10.2969 10.3639 10.4306
10.4976 10.5648 10.6321 10.6995 10.7666 10.7771 10.7877 10.7982 10.8087 10.8205
10.8765 10.9323 10.988 11.0435 11.0987 11.2305 11.3612 11.4906 11.6186 11.746