/*--------------------------------*- C++ -*----------------------------------*\
  =========                 |
  \\      /  F ield         | OpenFOAM: The Open Source CFD Toolbox
   \\    /   O peration     | Website:  https://openfoam.org
    \\  /    A nd           | Version:  10
     \\/     M anipulation  |
\*---------------------------------------------------------------------------*/
FoamFile
{
    format      ascii;
    class       volScalarField;
    location    "2000";
    object      k;
}
// * * * * * * * * * * * * * * * * * * * * * * * * * * * * * * * * * * * * * //

dimensions      [0 2 -2 0 0 0 0];

internalField   nonuniform List<scalar> 
55398
(
0.229266
0.200283
0.207318
0.319809
0.524136
0.989638
0.219384
0.186904
0.163011
0.144867
0.131781
0.12727
0.221985
0.732897
1.64406
2.41255
2.55161
2.74458
2.64832
2.34431
0.204451
0.177585
0.156671
0.140134
0.12724
0.119837
0.146821
0.284256
1.64043
2.22285
1.94216
1.59273
1.1073
0.801459
0.650621
0.204476
0.177595
0.156727
0.140222
0.127287
0.118431
0.124642
0.159458
0.29147
0.80243
1.26735
0.465168
0.235061
0.196078
0.177986
0.179213
0.160314
0.155647
0.204682
0.177867
0.157003
0.140459
0.127376
0.117837
0.11572
0.132292
0.168346
0.192111
0.213235
0.189242
0.148787
0.124949
0.112825
0.103361
0.0971257
0.0904904
0.0848455
0.08156
0.204901
0.178183
0.157347
0.140777
0.127576
0.117473
0.112086
0.115968
0.121299
0.122762
0.120875
0.113606
0.106081
0.0985753
0.0916734
0.0858891
0.0812719
0.0767129
0.072686
0.0693153
0.205113
0.178497
0.157703
0.1411
0.127872
0.117392
0.110249
0.108241
0.107813
0.106555
0.102771
0.097527
0.0921572
0.0865853
0.0817602
0.0774425
0.0736496
0.0699351
0.0665924
0.0636111
0.205309
0.178796
0.15805
0.141496
0.128153
0.117543
0.109525
0.104558
0.101125
0.0979259
0.0938467
0.0893953
0.0849063
0.0803332
0.0763095
0.0725297
0.0691595
0.0659089
0.0629419
0.060239
0.205409
0.179049
0.158383
0.141872
0.128501
0.117778
0.109242
0.10294
0.0979979
0.0936802
0.0893343
0.0850237
0.0808288
0.0767158
0.0730009
0.0695776
0.0664349
0.0634391
0.0606527
0.0581169
0.205673
0.179339
0.15869
0.14217
0.128814
0.118009
0.109239
0.102265
0.0965531
0.0916157
0.0870094
0.0826772
0.0786144
0.0747014
0.0711682
0.0678796
0.064848
0.0619815
0.0593285
0.0568662
0.205829
0.179583
0.158979
0.14248
0.129116
0.118239
0.109303
0.101992
0.0958937
0.0906114
0.0858135
0.0813897
0.0773692
0.0735323
0.0700636
0.0668384
0.0638803
0.0610835
0.0584925
0.0560731
0.205974
0.17981
0.159249
0.142772
0.129404
0.118481
0.109427
0.101932
0.0956209
0.0901113
0.0851616
0.0806866
0.0766218
0.0728573
0.0693945
0.0662159
0.0632765
0.060522
0.0579663
0.0555698
0.206108
0.180022
0.159502
0.143046
0.129684
0.11872
0.109603
0.101982
0.0955291
0.089868
0.0848191
0.0802854
0.076184
0.072426
0.0689877
0.065822
0.0628951
0.060165
0.0576317
0.0552511
0.206234
0.18022
0.159738
0.143305
0.129984
0.118937
0.109785
0.102088
0.0955266
0.0897836
0.0846464
0.0800555
0.0759304
0.0721673
0.0687283
0.0655825
0.0626648
0.0599491
0.0574291
0.0550574
0.206352
0.180407
0.159961
0.143548
0.130202
0.119165
0.109975
0.102233
0.0955987
0.08979
0.0845973
0.079979
0.0758148
0.072044
0.0686063
0.0654623
0.0625467
0.0598378
0.0573251
0.0549589
0.206462
0.180583
0.16017
0.143773
0.130407
0.119385
0.110172
0.102393
0.0957123
0.0898541
0.0846415
0.0799932
0.075809
0.0720275
0.0685877
0.0654349
0.0625196
0.0598112
0.057302
0.054937
0.206567
0.180749
0.160367
0.143983
0.130626
0.119583
0.110365
0.102564
0.0958555
0.0899702
0.084736
0.0800667
0.0758638
0.0720659
0.06861
0.0654498
0.0625234
0.0598059
0.0572873
0.0549147
0.206631
0.180842
0.160463
0.14407
0.130687
0.119627
0.110383
0.102564
0.0958175
0.0899048
0.0846404
0.0799467
0.0757171
0.0719038
0.0684392
0.0652461
0.0622942
0.0595596
0.0570267
0.054642
0.2292
0.196229
0.190142
0.248541
0.558708
0.785814
0.219364
0.186869
0.162958
0.144707
0.131376
0.125215
0.209915
0.685925
1.63232
2.42134
2.55854
2.60197
2.58532
2.25866
0.204419
0.17756
0.156685
0.140145
0.127253
0.119639
0.143171
0.284286
1.44013
2.09663
1.82151
1.51996
0.816454
0.79767
0.593489
0.204477
0.177594
0.156728
0.14023
0.1273
0.118374
0.122912
0.157281
0.312776
0.66033
1.29126
0.326001
0.234103
0.1945
0.174088
0.171059
0.155181
0.14715
0.204685
0.177869
0.157007
0.140469
0.127384
0.117811
0.115158
0.130877
0.158513
0.183956
0.197072
0.186296
0.139942
0.124426
0.111817
0.102919
0.0964177
0.0898149
0.0840738
0.0801584
0.204904
0.178185
0.157351
0.140789
0.127586
0.11746
0.111896
0.115118
0.120037
0.121792
0.118795
0.113021
0.105995
0.0982001
0.0912041
0.0856938
0.0810165
0.0764232
0.0723311
0.068784
0.205116
0.178499
0.157707
0.141118
0.127875
0.117403
0.110203
0.107915
0.107245
0.106022
0.102356
0.0973628
0.0921307
0.0865632
0.0817177
0.0773463
0.0735123
0.0698513
0.0664424
0.0633386
0.205312
0.178798
0.158054
0.141506
0.12817
0.117523
0.109547
0.10445
0.100896
0.0976775
0.0936588
0.089297
0.0848819
0.0803255
0.0762763
0.0724809
0.0690838
0.0658582
0.0628586
0.0600803
0.205429
0.179046
0.158381
0.141874
0.128515
0.11779
0.109237
0.102926
0.0979252
0.0935763
0.0892449
0.0849581
0.0807708
0.0767044
0.0729902
0.0695477
0.0663939
0.0634105
0.0606133
0.0580286
0.205673
0.179342
0.158693
0.142178
0.128824
0.11802
0.109231
0.10229
0.0965465
0.091576
0.0869691
0.0826393
0.0785785
0.0746981
0.0711584
0.0678611
0.0648234
0.0619643
0.0593031
0.0568131
0.205829
0.179585
0.158982
0.142487
0.129124
0.11826
0.109313
0.102023
0.0959054
0.0905969
0.0857948
0.0813542
0.0773327
0.0735304
0.0700574
0.0668292
0.0638636
0.0610735
0.0584786
0.0560418
0.205973
0.179812
0.159251
0.142778
0.129411
0.118487
0.109472
0.101973
0.0956277
0.0901076
0.0851561
0.0806695
0.0765938
0.0728689
0.0693809
0.0662063
0.0632665
0.0605156
0.0579586
0.0555513
0.206108
0.180023
0.159503
0.14305
0.12969
0.118728
0.109641
0.102018
0.0955356
0.0898707
0.0848181
0.0802752
0.0761659
0.0724242
0.0689889
0.0658166
0.0628893
0.0601611
0.0576279
0.0552404
0.206233
0.180221
0.159739
0.143309
0.129992
0.118958
0.109819
0.102118
0.0955342
0.0897864
0.0846478
0.080047
0.0759253
0.0721678
0.0687287
0.0655795
0.0626613
0.0599467
0.0574276
0.0550516
0.206351
0.180408
0.159961
0.14355
0.130207
0.119195
0.110006
0.102258
0.0956055
0.0897932
0.0845995
0.0799774
0.0758119
0.0720442
0.0686059
0.06546
0.0625445
0.0598364
0.057325
0.0549563
0.206462
0.180584
0.16017
0.143774
0.130413
0.119405
0.110195
0.102412
0.0957177
0.0898568
0.0846437
0.0799924
0.0758069
0.0720278
0.0685871
0.0654332
0.0625177
0.0598103
0.0573018
0.0549353
0.206566
0.180749
0.160367
0.143984
0.130627
0.119595
0.110378
0.102575
0.0958591
0.089972
0.0847372
0.0800657
0.075862
0.0720664
0.0686098
0.0654463
0.062521
0.0598047
0.0572867
0.0549121
0.20663
0.180842
0.160462
0.144069
0.130687
0.119631
0.110386
0.102567
0.0958186
0.089905
0.0846406
0.0799463
0.0757158
0.071903
0.0684386
0.0652433
0.0622939
0.0595595
0.057027
0.0546419
0.229194
0.194423
0.182731
0.219175
0.477751
0.686524
0.21937
0.186879
0.162962
0.144699
0.131612
0.124978
0.19718
0.577082
1.69456
2.41335
2.54292
2.50891
2.50577
2.23
0.204412
0.177545
0.156685
0.140141
0.127255
0.119581
0.143018
0.269081
1.85617
2.06304
1.82073
1.50978
0.789102
0.774757
0.583573
0.204479
0.177591
0.156729
0.140229
0.127303
0.118381
0.12317
0.156867
0.30039
0.525426
1.12627
0.324166
0.241202
0.196247
0.171509
0.16464
0.153038
0.145149
0.204687
0.177867
0.157007
0.140467
0.127381
0.117814
0.115211
0.131014
0.160184
0.183386
0.194149
0.181241
0.137658
0.122871
0.111671
0.102868
0.0958972
0.0892415
0.0838158
0.0798124
0.204907
0.178183
0.157351
0.140787
0.127583
0.117466
0.111906
0.115178
0.12007
0.121706
0.118552
0.112797
0.105265
0.0974692
0.0910916
0.0856639
0.0808323
0.076186
0.0722192
0.0687086
0.205118
0.178497
0.157707
0.141122
0.127867
0.11742
0.1102
0.107925
0.107264
0.106018
0.102257
0.0973449
0.0921533
0.0864288
0.081646
0.0773356
0.0734154
0.0696683
0.0663078
0.0633028
0.205315
0.178796
0.158054
0.141503
0.128171
0.117539
0.109534
0.104455
0.100906
0.0976829
0.0936311
0.0892802
0.0848769
0.080285
0.0762301
0.0724785
0.0690322
0.0657537
0.0627838
0.0600604
0.205446
0.179043
0.158376
0.141866
0.128515
0.117792
0.109243
0.102927
0.0979275
0.0935811
0.08923
0.0849497
0.080775
0.0766797
0.0729688
0.0695441
0.0663663
0.0633529
0.0605761
0.0580179
0.205673
0.179341
0.158693
0.142177
0.128823
0.118022
0.109231
0.102288
0.0965479
0.0915796
0.086962
0.0826117
0.0785629
0.0746832
0.0711423
0.0678576
0.0648073
0.0619308
0.0592793
0.0568058
0.205829
0.179585
0.158982
0.142487
0.129123
0.118259
0.109316
0.102023
0.0959068
0.0905983
0.0857895
0.0813435
0.077332
0.0735234
0.0700462
0.0668279
0.0638534
0.0610539
0.0584651
0.0560381
0.205974
0.179811
0.159252
0.142777
0.12941
0.118489
0.109469
0.101972
0.0956299
0.0901085
0.0851542
0.0806672
0.0765942
0.072858
0.0693568
0.0661995
0.0632603
0.0605035
0.057951
0.0555495
0.206108
0.180023
0.159504
0.14305
0.12969
0.11873
0.10964
0.102017
0.0955365
0.0898721
0.0848167
0.080274
0.0761657
0.0724167
0.0689634
0.0658074
0.0628857
0.060154
0.0576238
0.0552396
0.206234
0.180221
0.15974
0.143309
0.129988
0.118965
0.109818
0.102117
0.0955357
0.0897864
0.0846468
0.0800488
0.0759215
0.0721735
0.0687138
0.0655714
0.0626594
0.0599426
0.0574256
0.0550515
0.206351
0.180408
0.159962
0.14355
0.130209
0.119195
0.110007
0.102258
0.0956069
0.089793
0.0845989
0.0799774
0.0758109
0.0720443
0.0686049
0.065455
0.0625438
0.0598343
0.0573245
0.0549565
0.206462
0.180583
0.160171
0.143774
0.130415
0.119403
0.110196
0.102412
0.0957188
0.0898567
0.0846433
0.0799924
0.0758057
0.0720279
0.068586
0.0654296
0.0625171
0.0598088
0.0573016
0.0549357
0.206567
0.180749
0.160368
0.143984
0.130627
0.119595
0.110378
0.102575
0.0958599
0.089972
0.0847372
0.0800658
0.0758609
0.0720668
0.0686084
0.0654421
0.0625197
0.0598023
0.0572861
0.0549125
0.206631
0.180842
0.160463
0.144069
0.130687
0.11963
0.110386
0.102567
0.095819
0.089905
0.0846405
0.0799462
0.0757145
0.071902
0.0684389
0.0652389
0.0622938
0.059559
0.0570276
0.0546422
0.229208
0.193282
0.177471
0.202504
0.428122
0.639587
0.219373
0.186882
0.162963
0.144725
0.131951
0.125167
0.193126
0.540473
1.69225
2.42196
2.51247
2.51113
2.45317
2.25005
0.204405
0.177532
0.156681
0.140138
0.127258
0.119533
0.142866
0.273758
2.03575
2.05947
1.81845
1.51446
0.789705
0.766147
0.579205
0.20448
0.17759
0.156729
0.140227
0.127304
0.118385
0.123389
0.158229
0.291247
0.451802
1.0158
0.321487
0.24606
0.198391
0.17118
0.162363
0.151981
0.143837
0.204689
0.177865
0.157006
0.140465
0.127378
0.117818
0.11528
0.131222
0.162053
0.184309
0.193278
0.179048
0.137138
0.123353
0.111894
0.102872
0.095747
0.0892219
0.0837575
0.0796011
0.204908
0.178181
0.157351
0.140785
0.12758
0.117471
0.111922
0.115244
0.120164
0.121679
0.11838
0.112678
0.10514
0.0975935
0.091137
0.0856489
0.080805
0.0762131
0.0722079
0.0686798
0.20512
0.178496
0.157707
0.141125
0.127861
0.117435
0.110198
0.107937
0.107288
0.10602
0.102211
0.0973527
0.0918564
0.0861245
0.0815993
0.0773196
0.0734022
0.0696813
0.0663106
0.063293
0.205316
0.178795
0.158054
0.1415
0.128172
0.117551
0.10952
0.104455
0.100918
0.0976908
0.0936242
0.0892831
0.0847108
0.0800957
0.0761975
0.0724717
0.0690272
0.0657624
0.062783
0.0600551
0.205458
0.179043
0.158372
0.141859
0.128513
0.117794
0.109244
0.102928
0.0979311
0.0935872
0.0892261
0.0849462
0.0807435
0.076599
0.0729607
0.0695406
0.0663637
0.0633572
0.060578
0.0580155
0.205673
0.17934
0.158693
0.142177
0.128821
0.118023
0.10923
0.102287
0.0965493
0.0915834
0.0869603
0.0826024
0.078553
0.0746467
0.0711395
0.067855
0.0648053
0.0619327
0.059278
0.0568031
0.205829
0.179584
0.158983
0.142486
0.129121
0.118258
0.109317
0.102022
0.095908
0.0905999
0.0857871
0.0813422
0.0773186
0.0734993
0.0700456
0.0668274
0.0638515
0.0610547
0.0584643
0.0560369
0.205974
0.179811
0.159253
0.142777
0.129409
0.118491
0.109467
0.10197
0.0956314
0.0901095
0.0851536
0.0806664
0.0765874
0.0728336
0.0693648
0.0661965
0.0632584
0.0605036
0.0579501
0.055549
0.206108
0.180022
0.159504
0.14305
0.129689
0.118731
0.109638
0.102016
0.0955369
0.0898733
0.0848162
0.0802736
0.0761619
0.0724022
0.0689617
0.0658056
0.0628847
0.0601539
0.0576232
0.0552396
0.206234
0.180221
0.159741
0.143309
0.129985
0.118967
0.109818
0.102116
0.0955367
0.0897865
0.0846463
0.0800502
0.0759174
0.0721666
0.0686979
0.0655676
0.0626585
0.0599423
0.0574252
0.0550517
0.206352
0.180407
0.159963
0.14355
0.13021
0.119193
0.110007
0.102258
0.0956078
0.089793
0.0845985
0.0799774
0.07581
0.0720381
0.0685876
0.0654525
0.0625436
0.0598339
0.0573241
0.0549569
0.206463
0.180583
0.160172
0.143775
0.130418
0.1194
0.110196
0.102411
0.0957197
0.0898567
0.0846431
0.0799925
0.0758053
0.0720244
0.068573
0.0654285
0.0625171
0.0598085
0.0573011
0.0549361
0.206567
0.180749
0.160368
0.143984
0.130628
0.119594
0.110378
0.102575
0.0958604
0.0899721
0.0847371
0.0800659
0.0758602
0.0720633
0.0685983
0.0654419
0.0625196
0.0598019
0.0572858
0.0549129
0.206631
0.180841
0.160464
0.144069
0.130687
0.11963
0.110386
0.102567
0.0958193
0.089905
0.0846405
0.0799461
0.075714
0.071901
0.068434
0.0652375
0.0622941
0.0595588
0.0570275
0.0546425
0.229226
0.192643
0.173287
0.188649
0.39216
0.617134
0.219374
0.186882
0.162961
0.14473
0.132222
0.125325
0.188848
0.511956
1.71235
2.45397
2.49477
2.52964
2.42054
2.26207
0.204397
0.177519
0.156675
0.140136
0.12726
0.119486
0.14246
0.271319
2.14333
2.05372
1.80986
1.51551
0.789279
0.761064
0.575874
0.204481
0.177588
0.156729
0.140226
0.127306
0.118385
0.123507
0.159016
0.285632
0.417677
0.895237
0.315401
0.248564
0.200427
0.171225
0.160588
0.150861
0.142581
0.20469
0.177864
0.157006
0.140464
0.127377
0.11782
0.115337
0.131431
0.163046
0.185195
0.192577
0.177561
0.136721
0.123589
0.112104
0.102912
0.095635
0.0891878
0.0837012
0.07942
0.20491
0.178181
0.15735
0.140783
0.127578
0.117475
0.111937
0.115303
0.120287
0.1217
0.11826
0.11257
0.105014
0.0976605
0.0911799
0.0856408
0.0807805
0.0762326
0.0722021
0.0686548
0.205121
0.178495
0.157706
0.141127
0.127857
0.117446
0.110199
0.107947
0.107313
0.106023
0.102173
0.0973467
0.0918102
0.0862428
0.0815848
0.0773027
0.0733879
0.069691
0.0663157
0.0632857
0.205318
0.178794
0.158054
0.141499
0.128173
0.117561
0.10951
0.104453
0.100927
0.0976967
0.0936182
0.089285
0.0846848
0.0801427
0.0761814
0.0724628
0.0690217
0.0657698
0.0627845
0.060051
0.205468
0.179044
0.15837
0.141853
0.128511
0.117795
0.109245
0.102928
0.0979339
0.093592
0.0892238
0.0849423
0.0807507
0.0765963
0.072955
0.0695366
0.0663612
0.0633611
0.0605805
0.058014
0.205673
0.179339
0.158694
0.142176
0.12882
0.118024
0.10923
0.102286
0.0965502
0.0915865
0.0869595
0.0825946
0.0785574
0.0746515
0.0711388
0.0678529
0.0648035
0.0619343
0.0592775
0.0568009
0.20583
0.179584
0.158983
0.142486
0.12912
0.118258
0.109317
0.102022
0.095909
0.0906015
0.0857855
0.0813408
0.0773153
0.0734994
0.0700459
0.0668271
0.06385
0.0610554
0.0584638
0.0560359
0.205974
0.17981
0.159253
0.142777
0.129408
0.118492
0.109466
0.101969
0.0956324
0.0901106
0.0851532
0.0806656
0.0765859
0.0728275
0.0693723
0.0661958
0.0632569
0.0605036
0.0579495
0.0555485
0.206109
0.180022
0.159505
0.14305
0.129688
0.118732
0.109637
0.102015
0.095537
0.0898744
0.0848159
0.0802732
0.0761608
0.072399
0.0689636
0.0658051
0.0628838
0.0601538
0.0576227
0.0552395
0.206234
0.180221
0.159741
0.143309
0.129982
0.118969
0.109818
0.102116
0.0955374
0.0897867
0.0846458
0.0800512
0.0759152
0.0721609
0.0687021
0.0655659
0.0626575
0.0599421
0.0574248
0.0550518
0.206352
0.180407
0.159963
0.14355
0.130211
0.119191
0.110007
0.102258
0.0956085
0.0897932
0.0845982
0.0799773
0.0758098
0.0720364
0.0685862
0.0654508
0.0625431
0.0598337
0.0573238
0.0549571
0.206463
0.180583
0.160173
0.143775
0.130419
0.119398
0.110195
0.102411
0.0957203
0.0898569
0.0846429
0.0799924
0.0758054
0.0720233
0.0685702
0.0654277
0.062517
0.0598082
0.0573007
0.0549363
0.206567
0.180749
0.160369
0.143984
0.130628
0.119594
0.110378
0.102575
0.0958608
0.0899721
0.0847372
0.080066
0.0758607
0.0720622
0.0685946
0.0654415
0.0625194
0.0598016
0.0572855
0.0549132
0.206631
0.180841
0.160464
0.14407
0.130687
0.11963
0.110386
0.102567
0.0958196
0.0899051
0.0846406
0.0799461
0.0757145
0.0719018
0.0684291
0.065236
0.0622941
0.0595587
0.0570274
0.0546427
0.22924
0.192394
0.170193
0.177596
0.364941
0.61133
0.219376
0.186881
0.162958
0.144717
0.132423
0.125471
0.184799
0.488646
1.74838
2.49846
2.49143
2.54939
2.40157
2.26706
0.204391
0.177509
0.156669
0.140133
0.127262
0.119443
0.141853
0.265611
2.27686
2.04696
1.7983
1.51314
0.787774
0.756998
0.573285
0.204482
0.177587
0.156728
0.140226
0.127307
0.118384
0.123535
0.15918
0.28257
0.411852
0.813953
0.306764
0.248861
0.20203
0.171493
0.159205
0.149741
0.141374
0.204691
0.177864
0.157006
0.140463
0.127376
0.117822
0.115379
0.131609
0.163496
0.185775
0.19185
0.176435
0.136353
0.123662
0.112266
0.102972
0.0955552
0.0891418
0.0836427
0.0792626
0.20491
0.17818
0.15735
0.140783
0.127577
0.117477
0.11195
0.115357
0.120414
0.121761
0.118186
0.112476
0.104898
0.0976862
0.0912135
0.0856367
0.0807579
0.0762429
0.0721979
0.0686327
0.205121
0.178494
0.157706
0.141129
0.127854
0.117454
0.110201
0.107955
0.107337
0.10603
0.102143
0.0973311
0.091766
0.0863239
0.0815878
0.0772884
0.0733725
0.069695
0.0663198
0.0632797
0.205318
0.178794
0.158054
0.141498
0.128173
0.117569
0.109503
0.10445
0.100932
0.0977012
0.0936129
0.0892865
0.084662
0.0801776
0.0761751
0.0724542
0.0690151
0.065774
0.0627861
0.0600474
0.205476
0.179047
0.158368
0.141849
0.128509
0.117797
0.109245
0.102928
0.0979356
0.0935956
0.0892226
0.0849392
0.0807542
0.0765988
0.0729513
0.0695324
0.0663579
0.0633634
0.0605829
0.0580129
0.205673
0.179339
0.158694
0.142176
0.12882
0.118025
0.109229
0.102285
0.0965507
0.0915889
0.0869592
0.082588
0.0785594
0.0746568
0.0711394
0.0678511
0.0648015
0.0619352
0.0592773
0.056799
0.20583
0.179583
0.158983
0.142486
0.12912
0.118257
0.109318
0.102022
0.0959097
0.0906028
0.0857844
0.0813391
0.0773124
0.0734997
0.0700465
0.0668269
0.0638487
0.0610557
0.0584635
0.0560349
0.205974
0.17981
0.159253
0.142777
0.129407
0.118493
0.109465
0.101968
0.0956329
0.0901116
0.0851532
0.0806649
0.0765846
0.072823
0.0693777
0.0661962
0.0632557
0.0605033
0.057949
0.055548
0.206109
0.180022
0.159505
0.14305
0.129688
0.118733
0.109637
0.102014
0.0955371
0.0898752
0.0848159
0.0802728
0.0761599
0.0723966
0.0689654
0.065805
0.0628831
0.0601536
0.0576223
0.0552393
0.206234
0.18022
0.159742
0.143309
0.12998
0.11897
0.109819
0.102115
0.0955378
0.089787
0.0846455
0.080052
0.0759138
0.0721564
0.0687062
0.0655654
0.0626567
0.0599416
0.0574244
0.0550518
0.206352
0.180407
0.159964
0.143551
0.130212
0.119189
0.110007
0.102258
0.0956091
0.0897934
0.084598
0.0799771
0.0758098
0.0720349
0.068587
0.0654499
0.0625426
0.0598333
0.0573234
0.0549572
0.206463
0.180583
0.160173
0.143775
0.130421
0.119397
0.110195
0.102411
0.0957208
0.0898571
0.0846428
0.0799923
0.0758056
0.072022
0.0685697
0.0654272
0.0625168
0.059808
0.0573003
0.0549365
0.206567
0.180749
0.160369
0.143984
0.130628
0.119594
0.110378
0.102574
0.095861
0.0899723
0.0847372
0.0800661
0.0758612
0.0720604
0.0685933
0.0654412
0.0625193
0.0598013
0.0572852
0.0549134
0.206631
0.180841
0.160465
0.14407
0.130687
0.11963
0.110386
0.102567
0.0958198
0.0899052
0.0846407
0.079946
0.0757149
0.0719032
0.0684257
0.0652343
0.0622938
0.0595586
0.0570273
0.0546429
0.229248
0.192402
0.168098
0.168952
0.34412
0.610039
0.219376
0.186879
0.162955
0.144689
0.132539
0.125598
0.18132
0.469725
1.78625
2.54758
2.49993
2.57059
2.39409
2.26661
0.204386
0.1775
0.156663
0.14013
0.127265
0.119405
0.14112
0.259017
2.40347
2.0399
1.78558
1.50815
0.785403
0.753415
0.571165
0.204482
0.177587
0.156728
0.140225
0.127307
0.11838
0.123488
0.158782
0.279523
0.419772
0.796076
0.296791
0.247278
0.20299
0.171849
0.158149
0.148673
0.14022
0.204692
0.177863
0.157006
0.140462
0.127375
0.117823
0.115405
0.131733
0.163651
0.186053
0.191129
0.175576
0.136018
0.123628
0.112375
0.103038
0.0955046
0.089093
0.0835835
0.079124
0.204911
0.17818
0.15735
0.140782
0.127576
0.117479
0.111962
0.115403
0.120527
0.121845
0.118152
0.112398
0.104799
0.0976879
0.0912382
0.0856349
0.0807376
0.0762465
0.0721944
0.0686135
0.205122
0.178494
0.157706
0.141131
0.127853
0.11746
0.110204
0.107962
0.107359
0.106039
0.10212
0.0973114
0.091726
0.0863784
0.081601
0.0772786
0.0733573
0.0696949
0.0663223
0.0632747
0.205319
0.178794
0.158054
0.141497
0.128174
0.117576
0.1095
0.104447
0.100935
0.0977042
0.0936083
0.0892881
0.0846439
0.0802021
0.0761752
0.0724467
0.069008
0.0657758
0.0627874
0.0600445
0.205482
0.179049
0.158367
0.141845
0.128507
0.117798
0.109246
0.102927
0.0979362
0.0935979
0.0892222
0.0849368
0.0807559
0.0766023
0.0729497
0.0695283
0.0663544
0.0633645
0.0605847
0.0580122
0.205673
0.179338
0.158694
0.142176
0.128819
0.118026
0.109229
0.102284
0.0965506
0.0915905
0.0869592
0.0825825
0.0785598
0.0746612
0.0711413
0.0678499
0.0647996
0.0619355
0.059277
0.0567973
0.20583
0.179583
0.158984
0.142486
0.129119
0.118257
0.109318
0.102022
0.0959101
0.0906039
0.0857837
0.0813375
0.0773097
0.0734996
0.0700478
0.0668269
0.0638476
0.0610557
0.0584631
0.056034
0.205974
0.17981
0.159253
0.142777
0.129407
0.118494
0.109465
0.101966
0.0956332
0.0901124
0.0851532
0.0806643
0.0765834
0.0728195
0.0693822
0.0661972
0.0632549
0.060503
0.0579485
0.0555475
0.206109
0.180022
0.159506
0.14305
0.129688
0.118733
0.109636
0.102013
0.0955369
0.0898759
0.084816
0.0802725
0.0761592
0.0723947
0.0689678
0.0658053
0.0628826
0.0601534
0.057622
0.0552391
0.206234
0.18022
0.159742
0.143309
0.129979
0.11897
0.109819
0.102115
0.0955381
0.0897874
0.0846453
0.0800525
0.0759128
0.0721527
0.0687105
0.0655658
0.062656
0.0599413
0.057424
0.0550518
0.206352
0.180407
0.159964
0.143551
0.130213
0.119188
0.110006
0.102257
0.0956095
0.0897937
0.0845979
0.079977
0.0758098
0.0720334
0.0685895
0.0654496
0.0625421
0.059833
0.0573231
0.0549573
0.206463
0.180583
0.160173
0.143775
0.130422
0.119396
0.110194
0.102411
0.0957212
0.0898574
0.0846428
0.0799922
0.0758058
0.0720206
0.0685717
0.0654271
0.0625166
0.0598078
0.0573
0.0549365
0.206567
0.180749
0.16037
0.143985
0.130628
0.119594
0.110378
0.102574
0.0958612
0.0899724
0.0847373
0.0800661
0.0758616
0.0720587
0.0685955
0.0654413
0.0625191
0.0598011
0.057285
0.0549135
0.206631
0.180841
0.160465
0.14407
0.130687
0.11963
0.110386
0.102567
0.0958199
0.0899053
0.0846407
0.079946
0.0757152
0.0719048
0.0684259
0.065233
0.0622933
0.0595584
0.0570272
0.054643
0.229253
0.192549
0.166849
0.162303
0.328229
0.60914
0.219377
0.186878
0.162953
0.144651
0.132565
0.125687
0.178589
0.45603
1.81793
2.59578
2.51593
2.59354
2.39597
2.26236
0.204381
0.177493
0.156657
0.140126
0.127267
0.119372
0.140336
0.25279
2.49706
2.0321
1.77315
1.50125
0.782286
0.750051
0.569292
0.204483
0.177586
0.156728
0.140225
0.127308
0.118376
0.123383
0.157978
0.275572
0.432529
0.828525
0.286835
0.244279
0.203217
0.172163
0.157349
0.14769
0.139127
0.204692
0.177863
0.157006
0.140462
0.127375
0.117823
0.115415
0.131788
0.163611
0.186133
0.190502
0.1749
0.135715
0.123524
0.112428
0.103096
0.0954773
0.0890481
0.0835253
0.0790011
0.204911
0.17818
0.15735
0.140782
0.127576
0.11748
0.11197
0.115438
0.120616
0.121936
0.118148
0.112334
0.104712
0.097674
0.0912534
0.0856341
0.0807199
0.0762456
0.0721908
0.0685969
0.205122
0.178494
0.157706
0.141133
0.127852
0.117465
0.110207
0.107969
0.107377
0.10605
0.102104
0.0972915
0.0916902
0.0864132
0.0816176
0.0772734
0.0733435
0.0696919
0.0663233
0.0632704
0.205319
0.178794
0.158054
0.141497
0.128174
0.117581
0.109498
0.104443
0.100935
0.0977058
0.0936041
0.0892891
0.0846305
0.0802181
0.0761777
0.0724407
0.0690008
0.065776
0.0627884
0.0600421
0.205487
0.179052
0.158367
0.141842
0.128505
0.117799
0.109246
0.102926
0.0979357
0.0935989
0.0892222
0.0849349
0.0807565
0.0766054
0.0729489
0.0695248
0.0663506
0.0633646
0.0605861
0.0580117
0.205673
0.179338
0.158694
0.142175
0.128819
0.118026
0.109229
0.102283
0.0965501
0.0915914
0.0869592
0.0825782
0.0785592
0.0746646
0.0711433
0.0678491
0.0647979
0.0619354
0.0592766
0.0567958
0.20583
0.179583
0.158984
0.142486
0.129119
0.118257
0.109318
0.102022
0.0959103
0.0906047
0.0857833
0.0813362
0.0773073
0.0734991
0.0700487
0.066827
0.0638467
0.0610555
0.0584627
0.0560332
0.205974
0.17981
0.159254
0.142777
0.129406
0.118495
0.109464
0.101966
0.0956331
0.090113
0.0851534
0.0806638
0.0765824
0.0728167
0.0693852
0.0661985
0.0632546
0.0605027
0.057948
0.055547
0.206109
0.180022
0.159506
0.14305
0.129687
0.118734
0.109636
0.102012
0.0955366
0.0898764
0.0848161
0.0802722
0.0761586
0.0723931
0.0689694
0.0658058
0.0628822
0.0601532
0.0576216
0.0552388
0.206234
0.18022
0.159742
0.143309
0.129978
0.118971
0.109819
0.102114
0.0955383
0.0897876
0.0846452
0.0800529
0.0759121
0.0721496
0.0687134
0.0655666
0.0626556
0.0599409
0.0574237
0.0550517
0.206352
0.180407
0.159964
0.143551
0.130214
0.119188
0.110006
0.102257
0.0956098
0.089794
0.0845979
0.0799768
0.0758098
0.0720322
0.0685914
0.0654497
0.0625417
0.0598327
0.0573228
0.0549573
0.206463
0.180583
0.160174
0.143775
0.130423
0.119395
0.110194
0.102411
0.0957214
0.0898576
0.0846428
0.0799922
0.075806
0.0720195
0.0685732
0.0654273
0.0625165
0.0598077
0.0572997
0.0549365
0.206568
0.180749
0.16037
0.143985
0.130629
0.119593
0.110378
0.102574
0.0958614
0.0899726
0.0847373
0.0800662
0.0758619
0.0720575
0.0685971
0.0654416
0.062519
0.0598009
0.0572847
0.0549135
0.206631
0.180841
0.160465
0.14407
0.130687
0.11963
0.110386
0.102567
0.09582
0.0899054
0.0846408
0.079946
0.0757154
0.071906
0.0684263
0.0652321
0.0622927
0.0595581
0.0570271
0.054643
0.229256
0.192748
0.166272
0.157334
0.316336
0.608869
0.219377
0.186877
0.162951
0.144609
0.132504
0.125718
0.176662
0.450332
1.84015
2.63912
2.53779
2.61806
2.40548
2.25588
0.204378
0.177486
0.156651
0.140123
0.127268
0.119345
0.139571
0.247466
2.56141
2.02334
1.76219
1.49314
0.778551
0.746722
0.567515
0.204483
0.177585
0.156727
0.140224
0.127308
0.118372
0.123238
0.156941
0.270864
0.444034
0.887992
0.278047
0.240422
0.202732
0.17233
0.156726
0.146798
0.138099
0.204693
0.177863
0.157006
0.140462
0.127375
0.117823
0.115411
0.131769
0.163397
0.186083
0.190008
0.174356
0.13544
0.123377
0.112431
0.103139
0.0954652
0.0890103
0.0834707
0.0788918
0.204912
0.178179
0.15735
0.140782
0.127575
0.117481
0.111977
0.115463
0.120678
0.122018
0.118163
0.112286
0.104638
0.0976513
0.0912607
0.0856333
0.0807048
0.0762418
0.0721871
0.0685825
0.205123
0.178494
0.157706
0.141134
0.127852
0.117468
0.110211
0.107975
0.107392
0.106061
0.102092
0.0972724
0.0916586
0.0864338
0.0816344
0.0772722
0.0733318
0.069687
0.066323
0.0632666
0.20532
0.178794
0.158054
0.141497
0.128175
0.117586
0.109498
0.104441
0.100934
0.0977058
0.0935999
0.0892892
0.0846204
0.0802288
0.0761814
0.0724364
0.0689942
0.0657748
0.0627889
0.0600401
0.205491
0.179055
0.158368
0.14184
0.128503
0.117799
0.109246
0.102925
0.0979343
0.0935987
0.0892222
0.0849335
0.0807563
0.076608
0.0729489
0.0695219
0.066347
0.063364
0.060587
0.0580114
0.205673
0.179338
0.158694
0.142175
0.128818
0.118027
0.10923
0.102282
0.0965492
0.0915916
0.0869592
0.0825746
0.0785579
0.0746671
0.0711453
0.0678488
0.0647963
0.061935
0.0592763
0.0567945
0.20583
0.179583
0.158984
0.142486
0.129119
0.118256
0.109319
0.102022
0.0959102
0.0906051
0.0857831
0.081335
0.0773051
0.0734983
0.0700493
0.0668272
0.063846
0.0610552
0.0584624
0.0560324
0.205974
0.17981
0.159254
0.142777
0.129406
0.118495
0.109464
0.101965
0.0956329
0.0901134
0.0851536
0.0806633
0.0765815
0.0728143
0.0693872
0.0661998
0.0632545
0.0605024
0.0579476
0.0555465
0.206109
0.180022
0.159506
0.14305
0.129687
0.118734
0.109636
0.102012
0.0955363
0.0898766
0.0848163
0.0802719
0.076158
0.0723917
0.0689704
0.0658063
0.062882
0.060153
0.0576213
0.0552385
0.206234
0.18022
0.159742
0.143309
0.129977
0.118971
0.109819
0.102114
0.0955384
0.0897878
0.0846452
0.0800531
0.0759116
0.072147
0.0687152
0.0655675
0.0626555
0.0599405
0.0574233
0.0550515
0.206352
0.180407
0.159965
0.143551
0.130215
0.119187
0.110005
0.102257
0.0956099
0.0897942
0.0845979
0.0799767
0.0758097
0.0720312
0.0685927
0.0654501
0.0625414
0.0598324
0.0573225
0.0549572
0.206463
0.180583
0.160174
0.143776
0.130424
0.119395
0.110193
0.10241
0.0957215
0.0898578
0.0846429
0.0799921
0.075806
0.0720186
0.0685742
0.0654277
0.0625164
0.0598075
0.0572995
0.0549364
0.206568
0.180749
0.16037
0.143985
0.130629
0.119593
0.110378
0.102574
0.0958614
0.0899727
0.0847374
0.0800663
0.0758621
0.0720565
0.0685982
0.0654421
0.062519
0.0598007
0.0572845
0.0549135
0.206631
0.180841
0.160466
0.14407
0.130687
0.11963
0.110386
0.102566
0.0958201
0.0899055
0.0846409
0.079946
0.0757156
0.0719071
0.0684269
0.0652314
0.0622921
0.0595578
0.0570269
0.0546431
0.229257
0.192946
0.166187
0.153799
0.307971
0.608991
0.219377
0.186876
0.162951
0.144566
0.132371
0.125677
0.175493
0.453399
1.853
2.6749
2.56361
2.64365
2.42142
2.24867
0.204375
0.177481
0.156647
0.140119
0.127269
0.119323
0.138885
0.243264
2.61736
2.01443
1.75364
1.48441
0.774332
0.743325
0.565752
0.204483
0.177585
0.156727
0.140224
0.127308
0.118368
0.123069
0.155821
0.265826
0.448543
0.951541
0.271138
0.236252
0.201644
0.17229
0.156209
0.145996
0.137139
0.204693
0.177863
0.157006
0.140462
0.127374
0.117823
0.115394
0.131676
0.163012
0.185905
0.189638
0.173925
0.135194
0.123207
0.112391
0.103161
0.0954604
0.0889804
0.083421
0.0787943
0.204912
0.17818
0.157351
0.140782
0.127575
0.117481
0.11198
0.115473
0.120714
0.122082
0.118186
0.112249
0.104574
0.0976238
0.0912612
0.085632
0.0806914
0.0762356
0.072183
0.06857
0.205123
0.178494
0.157707
0.141135
0.127852
0.117471
0.110214
0.10798
0.107403
0.106069
0.102082
0.0972547
0.091631
0.0864445
0.0816494
0.0772739
0.0733222
0.0696811
0.0663214
0.0632631
0.20532
0.178794
0.158054
0.141497
0.128175
0.117589
0.109498
0.104439
0.100932
0.0977042
0.0935954
0.0892878
0.0846127
0.0802358
0.0761853
0.0724335
0.068988
0.0657727
0.0627888
0.0600383
0.205493
0.179058
0.158369
0.141839
0.128502
0.117799
0.109246
0.102924
0.0979323
0.0935972
0.0892217
0.0849323
0.0807555
0.07661
0.0729493
0.0695195
0.0663434
0.0633629
0.0605875
0.0580111
0.205673
0.179338
0.158694
0.142175
0.128818