/*--------------------------------*- C++ -*----------------------------------*\
  =========                 |
  \\      /  F ield         | OpenFOAM: The Open Source CFD Toolbox
   \\    /   O peration     | Website:  https://openfoam.org
    \\  /    A nd           | Version:  10
     \\/     M anipulation  |
\*---------------------------------------------------------------------------*/
FoamFile
{
    format      ascii;
    class       volScalarField;
    location    "2000";
    object      nut;
}
// * * * * * * * * * * * * * * * * * * * * * * * * * * * * * * * * * * * * * //

dimensions      [0 2 -1 0 0 0 0];

internalField   nonuniform List<scalar> 
55398
(
0.1334
0.104869
0.0808048
0.0714724
0.0843476
0.107973
0.134175
0.132986
0.132099
0.130112
0.121811
0.112516
0.115691
0.129217
0.161891
0.417811
0.618994
0.747436
0.779148
0.87122
0.133517
0.132417
0.131598
0.131022
0.130643
0.129657
0.131001
0.139886
0.199446
0.495095
0.468274
0.582626
0.541549
0.477515
0.467353
0.133436
0.13227
0.131354
0.130723
0.130534
0.131051
0.133314
0.13854
0.12503
0.0719918
0.171979
0.164453
0.142664
0.142197
0.14733
0.165901
0.165711
0.176278
0.13339
0.132169
0.131175
0.130441
0.130105
0.130662
0.132893
0.139381
0.139731
0.12771
0.118838
0.122915
0.1303
0.134084
0.134975
0.135613
0.136413
0.137312
0.137592
0.13914
0.133365
0.13211
0.131063
0.130245
0.129757
0.129955
0.131675
0.136137
0.139492
0.139866
0.140494
0.140922
0.140822
0.140627
0.140138
0.139706
0.139331
0.138765
0.138436
0.138054
0.13335
0.132075
0.130993
0.130114
0.129509
0.129401
0.130306
0.133153
0.135806
0.137381
0.138212
0.138287
0.137989
0.137349
0.136751
0.136275
0.135891
0.135296
0.134841
0.134428
0.133342
0.132052
0.130947
0.130028
0.129338
0.129006
0.129359
0.130818
0.132439
0.133656
0.134185
0.134242
0.133982
0.13339
0.132889
0.132399
0.132042
0.131536
0.131121
0.130741
0.133333
0.132037
0.130917
0.12997
0.12922
0.128738
0.128696
0.129326
0.130112
0.130743
0.130977
0.130886
0.130594
0.130094
0.129658
0.129275
0.128957
0.128536
0.128146
0.127803
0.133335
0.132029
0.130896
0.129926
0.129135
0.128562
0.128289
0.128427
0.128675
0.128845
0.128815
0.128633
0.128331
0.127885
0.127503
0.127152
0.126846
0.126476
0.126148
0.12583
0.133334
0.132024
0.130882
0.129896
0.129074
0.128438
0.128022
0.127871
0.127799
0.127687
0.127475
0.12719
0.126859
0.126431
0.126062
0.125724
0.125429
0.125085
0.124777
0.124464
0.133333
0.132021
0.130873
0.129875
0.12903
0.12835
0.127846
0.127519
0.127256
0.126976
0.126636
0.126259
0.12589
0.125489
0.125124
0.124786
0.124482
0.12415
0.12385
0.123533
0.133334
0.13202
0.130866
0.12986
0.128998
0.128286
0.127721
0.127291
0.126913
0.126522
0.1261
0.125671
0.125264
0.124864
0.12449
0.124146
0.123833
0.123507
0.12321
0.122892
0.133335
0.13202
0.130863
0.12985
0.128978
0.128238
0.127634
0.127137
0.126686
0.126229
0.125743
0.125272
0.124837
0.124426
0.124049
0.123703
0.123384
0.12306
0.122764
0.122443
0.133336
0.132021
0.130862
0.129843
0.12896
0.128206
0.127571
0.127038
0.126536
0.126037
0.12551
0.125012
0.124555
0.124137
0.123753
0.123401
0.123075
0.122751
0.122454
0.122132
0.133338
0.132023
0.130862
0.129839
0.128948
0.128182
0.127529
0.126966
0.126437
0.125907
0.125372
0.124858
0.124387
0.123959
0.123571
0.123212
0.122881
0.122553
0.122254
0.12193
0.13334
0.132025
0.130862
0.129836
0.128939
0.128164
0.127499
0.126916
0.126373
0.125828
0.125279
0.124755
0.124272
0.123832
0.12343
0.123061
0.122716
0.122373
0.12206
0.121723
0.133329
0.132
0.13082
0.129774
0.128854
0.128053
0.127357
0.126749
0.12617
0.125596
0.125014
0.12446
0.123946
0.123476
0.123044
0.122639
0.122258
0.121883
0.121535
0.121166
0.133704
0.112353
0.088261
0.0739166
0.0798848
0.104895
0.134172
0.132981
0.132118
0.130522
0.123452
0.114488
0.114765
0.126122
0.255753
0.464987
0.645963
0.676642
0.786317
0.690749
0.133515
0.132416
0.131597
0.131024
0.130689
0.13
0.13175
0.139721
0.129894
0.480751
0.537376
0.566778
0.459266
0.477069
0.448468
0.133435
0.132269
0.13135
0.130715
0.130531
0.131114
0.133614
0.138695
0.114511
0.0713317
0.171638
0.152972
0.144918
0.142842
0.146428
0.161857
0.164388
0.172402
0.13339
0.132168
0.131172
0.130434
0.130094
0.130639
0.132864
0.139342
0.13993
0.129971
0.122104
0.123053
0.132201
0.134198
0.135209
0.135734
0.13645
0.137273
0.137622
0.138805
0.133365
0.13211
0.131062
0.13024
0.129749
0.129921
0.131581
0.13589
0.139346
0.139903
0.140592
0.140917
0.14083
0.140498
0.139994
0.139635
0.13926
0.138659
0.138232
0.137756
0.13335
0.132074
0.130992
0.130112
0.129503
0.129377
0.130206
0.132973
0.135594
0.137282
0.138112
0.138228
0.137983
0.137336
0.136731
0.136202
0.135788
0.135229
0.134694
0.134148
0.133342
0.132052
0.130947
0.130027
0.129335
0.128991
0.129298
0.130697
0.132284
0.133535
0.134082
0.134176
0.133964
0.13338
0.132865
0.132351
0.131964
0.131482
0.131013
0.130534
0.133334
0.132037
0.130917
0.129969
0.129218
0.128736
0.128685
0.129263
0.13002
0.130659
0.130902
0.130827
0.130548
0.130084
0.129649
0.129243
0.128907
0.128501
0.128085
0.127677
0.133335
0.13203
0.130896
0.129925
0.129134
0.128561
0.128284
0.128394
0.128624
0.128798
0.128771
0.128592
0.128303
0.127883
0.127497
0.127132
0.126815
0.126454
0.126107
0.125748
0.133334
0.132024
0.130882
0.129895
0.129073
0.128438
0.12802
0.127854
0.127773
0.127662
0.127449
0.127149
0.126826
0.126429
0.12606
0.125713
0.12541
0.125073
0.124753
0.124414
0.133333
0.132021
0.130872
0.129874
0.129029
0.128349
0.127844
0.127512
0.127246
0.126962
0.126623
0.126238
0.12587
0.125491
0.125118
0.124779
0.124471
0.124143
0.123835
0.123504
0.133334
0.13202
0.130866
0.12986
0.128998
0.128285
0.127721
0.127288
0.126908
0.126515
0.126093
0.125658
0.125252
0.124863
0.12449
0.124143
0.123827
0.123503
0.123202
0.122875
0.133335
0.13202
0.130863
0.129849
0.128978
0.128239
0.127634
0.127137
0.126683
0.126226
0.125739
0.125267
0.124834
0.124427
0.124049
0.123701
0.12338
0.123058
0.122759
0.122433
0.133336
0.132021
0.130861
0.129843
0.12896
0.128207
0.127572
0.127038
0.126535
0.126035
0.125508
0.12501
0.124553
0.124136
0.123753
0.1234
0.123074
0.12275
0.122451
0.122127
0.133338
0.132023
0.130862
0.129839
0.128948
0.128183
0.12753
0.126966
0.126437
0.125906
0.125371
0.124857
0.124386
0.123959
0.123571
0.123212
0.12288
0.122553
0.122252
0.121927
0.13334
0.132025
0.130862
0.129836
0.128939
0.128164
0.127499
0.126917
0.126372
0.125827
0.125279
0.124754
0.124272
0.123832
0.12343
0.123059
0.122714
0.122373
0.122058
0.121719
0.133329
0.132
0.13082
0.129774
0.128853
0.128053
0.127357
0.126749
0.126169
0.125596
0.125013
0.12446
0.123945
0.123476
0.123044
0.122638
0.122258
0.121883
0.121535
0.121166
0.133886
0.115404
0.0905796
0.0750589
0.0817011
0.101026
0.134172
0.132987
0.132129
0.130557
0.123685
0.114935
0.113619
0.125081
0.287538
0.494879
0.658059
0.658791
0.783857
0.710704
0.133515
0.132416
0.131597
0.131026
0.130692
0.13004
0.131501
0.140855
0.162897
0.478173
0.542121
0.564245
0.450906
0.468408
0.443728
0.133435
0.132269
0.13135
0.130716
0.130532
0.131112
0.133633
0.138848
0.119553
0.0772699
0.164546
0.152596
0.146922
0.143865
0.145876
0.158623
0.16343
0.170671
0.13339
0.132168
0.131172
0.130434
0.130095
0.130638
0.132899
0.139354
0.139345
0.129423
0.122732
0.123917
0.132479
0.134398
0.135289
0.135792
0.136477
0.137219
0.137604
0.138582
0.133365
0.13211
0.131062
0.13024
0.129749
0.129919
0.131594
0.135905
0.139291
0.139808
0.140645
0.14095
0.140724
0.140306
0.139947
0.139623
0.139206
0.13857
0.13817
0.137729
0.13335
0.132074
0.130992
0.130112
0.129503
0.129377
0.130214
0.132976
0.135594
0.137278
0.138113
0.138243
0.137993
0.137273
0.136695
0.136195
0.135712
0.135068
0.134563
0.134113
0.133342
0.132052
0.130947
0.130027
0.129336
0.128992
0.1293
0.130698
0.132291
0.133539
0.134078
0.134169
0.133962
0.133343
0.132833
0.132351
0.131907
0.131363
0.130918
0.130508
0.133335
0.132037
0.130916
0.129968
0.129219
0.128737
0.128685
0.129266
0.130025
0.130661
0.130893
0.130824
0.130553
0.13006
0.129633
0.129241
0.12887
0.128425
0.12803
0.127662
0.133335
0.132029
0.130896
0.129925
0.129134
0.128562
0.128284
0.128395
0.128625
0.128799
0.128766
0.128566
0.128285
0.127868
0.127487
0.12713
0.126792
0.126407
0.12607
0.125736
0.133334
0.132024
0.130882
0.129895
0.129073
0.128438
0.128021
0.127854
0.127773
0.127663
0.127446
0.127141
0.126826
0.126421
0.126055
0.125712
0.125395
0.125045
0.124731
0.124407
0.133333
0.132021
0.130873
0.129874
0.129029
0.128349
0.127844
0.127513
0.127246
0.126962
0.126621
0.126235
0.125871
0.125477
0.125101
0.124775
0.124462
0.124126
0.123822
0.123499
0.133334
0.13202
0.130866
0.12986
0.128998
0.128285
0.127721
0.127288
0.126908
0.126515
0.126092
0.125656
0.125252
0.124853
0.124478
0.124138
0.123822
0.123493
0.123194
0.122872
0.133335
0.13202
0.130863
0.12985
0.128978
0.12824
0.127634
0.127137
0.126684
0.126226
0.125738
0.125266
0.124834
0.124427
0.124045
0.123699
0.123378
0.123052
0.122755
0.122432
0.133336
0.132021
0.130862
0.129843
0.12896
0.128207
0.127573
0.127038
0.126535
0.126035
0.125508
0.12501
0.124553
0.124136
0.123752
0.123399
0.123072
0.122747
0.122449
0.122126
0.133338
0.132023
0.130862
0.129839
0.128948
0.128183
0.12753
0.126966
0.126437
0.125906
0.125371
0.124857
0.124386
0.123959
0.12357
0.123211
0.122879
0.122551
0.122251
0.121926
0.13334
0.132025
0.130862
0.129836
0.128939
0.128164
0.127499
0.126917
0.126373
0.125827
0.125279
0.124754
0.124272
0.123832
0.123428
0.123057
0.122713
0.12237
0.122056
0.121719
0.133329
0.132
0.13082
0.129774
0.128853
0.128053
0.127357
0.126749
0.126169
0.125596
0.125013
0.12446
0.123945
0.123475
0.123044
0.122638
0.122257
0.121883
0.121535
0.121166
0.133993
0.117967
0.0920602
0.0752156
0.0806961
0.098588
0.134173
0.132991
0.132135
0.130477
0.123626
0.114978
0.112046
0.123181
0.304492
0.514691
0.661289
0.67049
0.777496
0.713882
0.133515
0.132416
0.131596
0.131027
0.130696
0.130064
0.131092
0.140848
0.163743
0.479061
0.54364
0.565404
0.450089
0.464621
0.44137
0.133435
0.132269
0.13135
0.130716
0.130533
0.13111
0.133599
0.139031
0.125373
0.0845092
0.155899
0.151475
0.148167
0.144935
0.145742
0.156466
0.162522
0.169277
0.13339
0.132168
0.131172
0.130435
0.130096
0.130637
0.132922
0.139368
0.139034
0.128566
0.122616
0.124256
0.132423
0.134211
0.135275
0.13584
0.136467
0.137128
0.137563
0.1384
0.133365
0.13211
0.131062
0.130241
0.12975
0.129918
0.131608
0.135921
0.139225
0.139694
0.140655
0.140999
0.140741
0.140319
0.139943
0.139613
0.139213
0.13861
0.138169
0.137727
0.13335
0.132074
0.130992
0.130113
0.129503
0.129376
0.130225
0.132982
0.135592
0.13727
0.138119
0.138269
0.137841
0.137107
0.136669
0.136186
0.135704
0.135088
0.134565
0.134106
0.133342
0.132052
0.130947
0.130027
0.129336
0.128992
0.129302
0.1307
0.132298
0.133544
0.134082
0.134178
0.133831
0.133214
0.13281
0.132347
0.131902
0.131375
0.130918
0.130501
0.133335
0.132037
0.130916
0.129968
0.129219
0.128738
0.128685
0.129269
0.130031
0.130666
0.130892
0.130825
0.130516
0.13001
0.129627
0.129239
0.128866
0.128431
0.128032
0.127659
0.133335
0.132029
0.130896
0.129925
0.129134
0.128562
0.128284
0.128396
0.128627
0.128801
0.128765
0.128564
0.128266
0.12784
0.127485
0.127129
0.126789
0.12641
0.126069
0.125731
0.133334
0.132024
0.130882
0.129895
0.129073
0.128438
0.128021
0.127855
0.127774
0.127664
0.127445
0.127137
0.126813
0.126405
0.126054
0.125712
0.125393
0.125046
0.12473
0.124404
0.133333
0.132021
0.130873
0.129874
0.129029
0.128349
0.127844
0.127513
0.127247
0.126963
0.126621
0.126234
0.125863
0.125467
0.125104
0.124774
0.12446
0.124127
0.123822
0.123498
0.133334
0.13202
0.130867
0.12986
0.128998
0.128286
0.127721
0.127288
0.126908
0.126516
0.126092
0.125656
0.125247
0.124846
0.124479
0.124138
0.123821
0.123493
0.123194
0.122871
0.133335
0.13202
0.130863
0.12985
0.128978
0.12824
0.127634
0.127137
0.126684
0.126226
0.125738
0.125265
0.12483
0.12442
0.124039
0.123698
0.123377
0.123052
0.122754
0.122431
0.133336
0.132021
0.130862
0.129843
0.128961
0.128207
0.127573
0.127038
0.126535
0.126035
0.125508
0.12501
0.124552
0.124132
0.123748
0.123398
0.123072
0.122747
0.122449
0.122126
0.133338
0.132023
0.130862
0.129839
0.128948
0.128183
0.12753
0.126966
0.126437
0.125906
0.125371
0.124857
0.124386
0.123957
0.123567
0.12321
0.122879
0.122551
0.122251
0.121926
0.13334
0.132025
0.130862
0.129836
0.128939
0.128164
0.127499
0.126917
0.126373
0.125827
0.125279
0.124754
0.124271
0.12383
0.123425
0.123057
0.122712
0.122371
0.122056
0.121719
0.133329
0.132
0.13082
0.129774
0.128854
0.128053
0.127357
0.126749
0.126169
0.125596
0.125013
0.12446
0.123945
0.123475
0.123044
0.122637
0.122257
0.121883
0.121535
0.121165
0.13406
0.1206
0.0939756
0.0757053
0.0778091
0.0978973
0.134173
0.132994
0.132142
0.130427
0.123593
0.115071
0.110888
0.12342
0.319767
0.533367
0.666836
0.678289
0.773615
0.711369
0.133514
0.132416
0.131596
0.131028
0.1307
0.130084
0.13066
0.139596
0.162843
0.478936
0.543812
0.566135
0.449098
0.462054
0.439505
0.133435
0.132269
0.13135
0.130716
0.130533
0.13111
0.133529
0.139052
0.122565
0.0876391
0.143764
0.149553
0.148665
0.145877
0.145818
0.154798
0.161503
0.167971
0.13339
0.132168
0.131172
0.130435
0.130097
0.130636
0.132933
0.139412
0.139279
0.128172
0.122331
0.124468
0.13237
0.134062
0.135239
0.135876
0.136466
0.137058
0.137516
0.138247
0.133365
0.13211
0.131062
0.130241
0.12975
0.129917
0.131618
0.135936
0.139163
0.139569
0.140632
0.141039
0.140762
0.14033
0.13994
0.139602
0.139216
0.138644
0.138175
0.137727
0.13335
0.132074
0.130992
0.130113
0.129503
0.129376
0.130233
0.132987
0.135586
0.137255
0.13812
0.138287
0.137838
0.137165
0.13666
0.136175
0.135696
0.135103
0.134571
0.1341
0.133342
0.132052
0.130947
0.130027
0.129336
0.128993
0.129304
0.130701
0.132302
0.133546
0.134085
0.134186
0.133818
0.133249
0.132798
0.132342
0.131898
0.131385
0.130921
0.130496
0.133336
0.132037
0.130916
0.129968
0.129219
0.128738
0.128684
0.12927
0.130036
0.130669
0.130891
0.130826
0.130515
0.130016
0.129623
0.129237
0.128863
0.128437
0.128036
0.127657
0.133335
0.132029
0.130896
0.129925
0.129134
0.128562
0.128284
0.128396
0.128629
0.128804
0.128765
0.128563
0.128268
0.127845
0.127483
0.127128
0.126787
0.126413
0.126069
0.125727
0.133334
0.132024
0.130882
0.129895
0.129073
0.128438
0.128021
0.127855
0.127775
0.127665
0.127444
0.127134
0.126811
0.126407
0.126054
0.125712
0.125392
0.125048
0.12473
0.124401
0.133333
0.132021
0.130873
0.129874
0.129029
0.128349
0.127844
0.127514
0.127247
0.126963
0.126621
0.126233
0.125862
0.125467
0.125107
0.124773
0.124458
0.124127
0.123822
0.123496
0.133334
0.13202
0.130867
0.12986
0.128998
0.128286
0.127721
0.127289
0.126909
0.126516
0.126092
0.125655
0.125247
0.124846
0.12448
0.124138
0.12382
0.123494
0.123194
0.12287
0.133335
0.13202
0.130863
0.12985
0.128977
0.12824
0.127634
0.127137
0.126684
0.126226
0.125738
0.125265
0.124829
0.124419
0.124041
0.123697
0.123376
0.123052
0.122754
0.122431
0.133336
0.132021
0.130862
0.129843
0.128961
0.128207
0.127573
0.127038
0.126535
0.126035
0.125508
0.12501
0.124552
0.124131
0.123748
0.123398
0.123072
0.122747
0.122449
0.122126
0.133338
0.132023
0.130862
0.129839
0.128948
0.128183
0.12753
0.126967
0.126437
0.125906
0.125371
0.124857
0.124386
0.123957
0.123567
0.12321
0.122879
0.122551
0.122251
0.121926
0.13334
0.132025
0.130862
0.129836
0.128939
0.128164
0.127499
0.126917
0.126373
0.125827
0.125279
0.124754
0.124271
0.123829
0.123424
0.123057
0.122712
0.122371
0.122056
0.121719
0.133329
0.132
0.13082
0.129774
0.128854
0.128053
0.127357
0.126749
0.126169
0.125596
0.125013
0.12446
0.123945
0.123475
0.123043
0.122637
0.122257
0.121883
0.121535
0.121165
0.134099
0.123055
0.0962586
0.0762927
0.0743781
0.0983698
0.134173
0.132997
0.13215
0.130408
0.123551
0.115194
0.11015
0.124209
0.332987
0.55036
0.674387
0.684292
0.774438
0.707259
0.133514
0.132415
0.131595
0.131028
0.130703
0.130103
0.130257
0.13802
0.165314
0.477746
0.543183
0.566313
0.447922
0.459897
0.437977
0.133435
0.132269
0.13135
0.130717
0.130534
0.131111
0.133435
0.138864
0.119906
0.0860895
0.132418
0.146902
0.148445
0.146566
0.146012
0.15352
0.16046
0.166729
0.13339
0.132168
0.131172
0.130435
0.130097
0.130635
0.132933
0.139493
0.140018
0.128352
0.122131
0.124601
0.132336
0.133942
0.135186
0.135899
0.136472
0.137005
0.137468
0.138115
0.133365
0.13211
0.131062
0.130241
0.129751
0.129916
0.131625
0.135953
0.13912
0.13945
0.140585
0.141064
0.140786
0.140342
0.139938
0.139592
0.139215
0.138671
0.138184
0.137727
0.13335
0.132074
0.130992
0.130113
0.129504
0.129375
0.130239
0.132991
0.135578
0.137235
0.138115
0.138296
0.137834
0.137206
0.13666
0.136165
0.135686
0.135113
0.134576
0.134096
0.133342
0.132052
0.130947
0.130027
0.129336
0.128993
0.129305
0.130701
0.132304
0.133547
0.134087
0.134194
0.133808
0.133272
0.132792
0.132335
0.131892
0.131392
0.130924
0.130492
0.133336
0.132037
0.130916
0.129967
0.129219
0.128738
0.128684
0.129271
0.130039
0.130672
0.130892
0.130826
0.130513
0.13002
0.129621
0.129234
0.128859
0.12844
0.128039
0.127655
0.133335
0.132029
0.130896
0.129925
0.129134
0.128562
0.128284
0.128397
0.12863
0.128805
0.128765
0.128561
0.128269
0.127849
0.127483
0.127127
0.126785
0.126415
0.126069
0.125723
0.133334
0.132024
0.130882
0.129895
0.129073
0.128438
0.128021
0.127856
0.127776
0.127666
0.127444
0.12713
0.126809
0.126408
0.126053
0.125712
0.12539
0.125049
0.12473
0.124399
0.133333
0.132021
0.130873
0.129874
0.129029
0.12835
0.127844
0.127514
0.127248
0.126963
0.12662
0.126232
0.125861
0.125468
0.125108
0.124773
0.124457
0.124128
0.123821
0.123495
0.133334
0.13202
0.130867
0.12986
0.128998
0.128286
0.127721
0.127289
0.126909
0.126516
0.126091
0.125654
0.125246
0.124845
0.12448
0.124138
0.123819
0.123494
0.123194
0.122869
0.133335
0.13202
0.130863
0.12985
0.128977
0.12824
0.127634
0.127137
0.126684
0.126226
0.125738
0.125264
0.124828
0.124418
0.124042
0.123697
0.123376
0.123052
0.122754
0.12243
0.133336
0.132021
0.130862
0.129843
0.128961
0.128207
0.127573
0.127038
0.126536
0.126035
0.125508
0.12501
0.124552
0.124131
0.123748
0.123398
0.123071
0.122747
0.122449
0.122126
0.133338
0.132023
0.130862
0.129839
0.128948
0.128183
0.12753
0.126967
0.126437
0.125906
0.125371
0.124857
0.124385
0.123956
0.123567
0.12321
0.122879
0.122551
0.12225
0.121926
0.13334
0.132025
0.130862
0.129836
0.128939
0.128164
0.127499
0.126917
0.126373
0.125827
0.125279
0.124754
0.124271
0.123828
0.123423
0.123057
0.122712
0.122371
0.122056
0.121719
0.133329
0.132
0.13082
0.129774
0.128854
0.128053
0.127357
0.126749
0.126169
0.125596
0.125013
0.12446
0.123945
0.123475
0.123043
0.122637
0.122257
0.121883
0.121534
0.121165
0.134121
0.125144
0.0987755
0.0768854
0.0711293
0.0988592
0.134173
0.132999
0.132158
0.130416
0.123499
0.115333
0.109799
0.123289
0.343543
0.565308
0.678491
0.688521
0.779282
0.703529
0.133514
0.132415
0.131595
0.131028
0.130707
0.130121
0.129909
0.136663
0.173853
0.475534
0.542012
0.565992
0.446609
0.457983
0.436656
0.133435
0.132269
0.13135
0.130717
0.130534
0.131112
0.13333
0.138516
0.118603
0.0836312
0.126951
0.143748
0.147579
0.146924
0.146236
0.15255
0.159454
0.165546
0.13339
0.132168
0.131172
0.130435
0.130098
0.130634
0.132923
0.139592
0.141037
0.129025
0.122194
0.124684
0.13232
0.133844
0.135123
0.135906
0.136481
0.136966
0.13742
0.137999
0.133365
0.13211
0.131062
0.130241
0.129751
0.129914
0.131629
0.135973
0.139109
0.139353
0.140525
0.141071
0.140809
0.140357
0.139939
0.139582
0.139211
0.138691
0.138194
0.137728
0.13335
0.132074
0.130992
0.130113
0.129504
0.129374
0.130244
0.132995
0.135569
0.137212
0.138106
0.1383
0.137831
0.137236
0.136667
0.136158
0.135675
0.135119
0.134581
0.134093
0.133342
0.132052
0.130947
0.130027
0.129336
0.128993
0.129307
0.130701
0.132304
0.133547
0.134088
0.134201
0.133801
0.133287
0.13279
0.13233
0.131886
0.131395
0.130927
0.130489
0.133337
0.132037
0.130916
0.129967
0.129219
0.128738
0.128684
0.129271
0.13004
0.130674
0.130893
0.130827
0.130512
0.130023
0.12962
0.129231
0.128855
0.128442
0.128041
0.127655
0.133335
0.132029
0.130896
0.129925
0.129134
0.128562
0.128284
0.128397
0.128631
0.128806
0.128765
0.128559
0.128269
0.127852
0.127483
0.127126
0.126783
0.126415
0.126069
0.12572
0.133334
0.132024
0.130882
0.129895
0.129073
0.128438
0.128021
0.127856
0.127777
0.127667
0.127444
0.127128
0.126807
0.126409
0.126054
0.125712
0.125389
0.125049
0.12473
0.124398
0.133333
0.132021
0.130873
0.129874
0.129029
0.12835
0.127844
0.127514
0.127248
0.126964
0.12662
0.126231
0.12586
0.125468
0.12511
0.124773
0.124456
0.124128
0.123821
0.123494
0.133334
0.13202
0.130867
0.12986
0.128998
0.128286
0.127721
0.127289
0.126909
0.126516
0.126091
0.125654
0.125245
0.124844
0.124481
0.124138
0.123818
0.123494
0.123194
0.122869
0.133335
0.13202
0.130863
0.12985
0.128977
0.12824
0.127634
0.127137
0.126684
0.126226
0.125738
0.125264
0.124827
0.124417
0.124043
0.123697
0.123375
0.123052
0.122754
0.12243
0.133336
0.132021
0.130862
0.129843
0.128961
0.128207
0.127573
0.127038
0.126536
0.126035
0.125508
0.12501
0.124551
0.12413
0.123749
0.123397
0.123071
0.122747
0.122449
0.122125
0.133338
0.132023
0.130862
0.129839
0.128949
0.128183
0.12753
0.126967
0.126437
0.125906
0.125371
0.124857
0.124385
0.123956
0.123567
0.12321
0.122878
0.122551
0.12225
0.121926
0.13334
0.132025
0.130862
0.129836
0.128939
0.128164
0.127499
0.126917
0.126373
0.125827
0.125279
0.124754
0.124271
0.123827
0.123424
0.123057
0.122712
0.122371
0.122056
0.121719
0.133329
0.132
0.13082
0.129774
0.128854
0.128053
0.127357
0.126749
0.126169
0.125596
0.125013
0.12446
0.123945
0.123475
0.123043
0.122637
0.122257
0.121883
0.121534
0.121165
0.134133
0.126795
0.101392
0.0775097
0.0683451
0.0989096
0.134173
0.133001
0.132167
0.130443
0.123442
0.115472
0.109789
0.120425
0.35159
0.578068
0.67933
0.691673
0.78703
0.701223
0.133514
0.132415
0.131594
0.131028
0.130709
0.13014
0.129625
0.135692
0.185723
0.472461
0.540492
0.565238
0.445174
0.456228
0.43544
0.133435
0.132269
0.13135
0.130717
0.130534
0.131115
0.133223
0.138094
0.117199
0.0824682
0.128282
0.140484
0.146201
0.146917
0.146413
0.151814
0.158519
0.164425
0.13339
0.132168
0.131172
0.130435
0.130098
0.130634
0.132906
0.139684
0.142076
0.130022
0.122541
0.124775
0.132317
0.133768
0.135057
0.1359
0.136488
0.136937
0.137376
0.137897
0.133365
0.13211
0.131062
0.130241
0.129751
0.129913
0.13163
0.135996
0.139135
0.139294
0.140465
0.141062
0.140825
0.140373
0.139943
0.139574
0.139205
0.138706
0.138205
0.13773
0.13335
0.132074
0.130992
0.130113
0.129504
0.129373
0.130247
0.133
0.135563
0.137188
0.138091
0.138298
0.137827
0.137258
0.136677
0.136154
0.135665
0.135121
0.134585
0.134091
0.133342
0.132052
0.130947
0.130027
0.129336
0.128993
0.129308
0.130701
0.132302
0.133544
0.134087
0.134208
0.133797
0.133299
0.132791
0.132325
0.131879
0.131397
0.130929
0.130486
0.133337
0.132037
0.130916
0.129967
0.129219
0.128738
0.128683
0.12927
0.130041
0.130676
0.130894
0.130827
0.13051
0.130025
0.12962
0.129229
0.128852
0.128443
0.128044
0.127654
0.133335
0.132029
0.130896
0.129925
0.129134
0.128562
0.128284
0.128397
0.128631
0.128807
0.128765
0.128558
0.128269
0.127854
0.127484
0.127125
0.12678
0.126416
0.126069
0.125718
0.133334
0.132024
0.130882
0.129895
0.129073
0.128438
0.128021
0.127856
0.127777
0.127668
0.127444
0.127125
0.126804
0.126409
0.126054
0.125712
0.125388
0.125049
0.12473
0.124396
0.133333
0.132021
0.130873
0.129874
0.129029
0.12835
0.127844
0.127514
0.127248
0.126964
0.12662
0.12623
0.125859
0.125468
0.125111
0.124773
0.124455
0.124128
0.123821
0.123493
0.133334
0.13202
0.130867
0.12986
0.128998
0.128286
0.127721
0.127289
0.126909
0.126517
0.126091
0.125653
0.125244
0.124844
0.124481
0.124138
0.123818
0.123494
0.123193
0.122868
0.133335
0.13202
0.130863
0.12985
0.128977
0.12824
0.127635
0.127137
0.126684
0.126226
0.125738
0.125263
0.124827
0.124417
0.124044
0.123697
0.123375
0.123052
0.122754
0.122429
0.133336
0.132021
0.130862
0.129843
0.128961
0.128207
0.127573
0.127038
0.126536
0.126035
0.125508
0.125009
0.124551
0.12413
0.123749
0.123397
0.123071
0.122747
0.122449
0.122125
0.133338
0.132023
0.130862
0.129839
0.128949
0.128183
0.12753
0.126967
0.126437
0.125906
0.125371
0.124857
0.124385
0.123956
0.123568
0.12321
0.122878
0.122551
0.12225
0.121926
0.13334
0.132025
0.130862
0.129836
0.128939
0.128164
0.127499
0.126917
0.126373
0.125827
0.125279
0.124754
0.124271
0.123827
0.123425
0.123057
0.122712
0.122371
0.122056
0.121719
0.133329
0.132
0.13082
0.129774
0.128854
0.128053
0.127357
0.126749
0.126169
0.125596
0.125013
0.12446
0.123945
0.123475
0.123043
0.122637
0.122257
0.121883
0.121534
0.121165
0.134139
0.128025
0.103979
0.0782292
0.0660936
0.0986429
0.134173
0.133002
0.132176
0.130485
0.123389
0.1156
0.110059
0.120638
0.357598
0.588635
0.681169
0.694467
0.796557
0.700616
0.133514
0.132415
0.131594
0.131028
0.130711
0.13016
0.129409
0.135046
0.196852
0.46886
0.538792
0.564139
0.44363
0.454563
0.434267
0.133435
0.132269
0.131349
0.130717
0.130534
0.131118
0.133122
0.137674
0.115043
0.0827521
0.133944
0.137542
0.144506
0.146562
0.146486
0.15124
0.157666
0.163369
0.13339
0.132168
0.131172
0.130435
0.130098
0.130633
0.132885
0.139748
0.142933
0.131156
0.123088
0.124933
0.132323
0.133711
0.134992
0.135882
0.136493
0.136915
0.137336
0.137808
0.133365
0.13211
0.131062
0.130241
0.129751
0.129912
0.131629
0.136018
0.139193
0.139282
0.140414
0.141041
0.140833
0.140388
0.139949
0.139569
0.139198
0.138716
0.138216
0.137734
0.13335
0.132074
0.130992
0.130114
0.129504
0.129372
0.130249
0.133004
0.135561
0.137168
0.138074
0.138293
0.137822
0.137274
0.136687
0.136153
0.135657
0.13512
0.134588
0.134089
0.133342
0.132052
0.130947
0.130027
0.129336
0.128992
0.129308
0.130701
0.132299
0.13354
0.134084
0.134212
0.133795
0.133307
0.132793
0.132321
0.131873
0.131397
0.130931
0.130484
0.133337
0.132037
0.130916
0.129967
0.129219
0.128738
0.128683
0.12927
0.130041
0.130676
0.130895
0.130828
0.130509
0.130027
0.12962
0.129227
0.128848
0.128443
0.128045
0.127654
0.133335
0.132029
0.130896
0.129925
0.129134
0.128562
0.128284
0.128396
0.128631
0.128808
0.128765
0.128557
0.128268
0.127856
0.127485
0.127124
0.126779
0.126416
0.126069
0.125716
0.133334
0.132024
0.130882
0.129895
0.129073
0.128438
0.128021
0.127856
0.127777
0.127668
0.127444
0.127124
0.126802
0.126409
0.126054
0.125712
0.125387
0.125049
0.12473
0.124395
0.133333
0.132021
0.130873
0.129874
0.129029
0.12835
0.127844
0.127514
0.127248
0.126964
0.12662
0.12623
0.125858
0.125468
0.125112
0.124773
0.124455
0.124128
0.123821
0.123492
0.133334
0.13202
0.130867
0.12986
0.128998
0.128286
0.127721
0.127289
0.126909
0.126517
0.126091
0.125653
0.125244
0.124843
0.124482
0.124138
0.123818
0.123494
0.123193
0.122868
0.133335
0.13202
0.130863
0.12985
0.128977
0.12824
0.127635
0.127137
0.126684
0.126227
0.125738
0.125263
0.124826
0.124416
0.124045
0.123697
0.123375
0.123052
0.122754
0.122429
0.133336
0.132021
0.130862
0.129843
0.128961
0.128207
0.127573
0.127038
0.126536
0.126035
0.125508
0.125009
0.124551
0.12413
0.12375
0.123397
0.123071
0.122747
0.122449
0.122125
0.133338
0.132023
0.130862
0.129839
0.128949
0.128183
0.12753
0.126966
0.126437
0.125906
0.125371
0.124857
0.124385
0.123955
0.123568
0.12321
0.122878
0.122551
0.12225
0.121926
0.13334
0.132025
0.130862
0.129836
0.128939
0.128164
0.127499
0.126917
0.126373
0.125828
0.125279
0.124754
0.124271
0.123827
0.123425
0.123057
0.122711
0.122371
0.122056
0.121719
0.133329
0.132
0.13082
0.129774
0.128854
0.128053
0.127357
0.126749
0.126169
0.125596
0.125013
0.124459
0.123945
0.123475
0.123043
0.122636
0.122257
0.121882
0.121534
0.121165
0.134142
0.128901
0.106418
0.0790915
0.0643822
0.0982044
0.134173
0.133004
0.132184
0.130538
0.123347
0.115706
0.110538
0.123757
0.362139
0.597102
0.684197
0.697387
0.80705
0.701347
0.133513
0.132415
0.131594
0.131027
0.130712
0.130182
0.129264
0.134581
0.204491
0.465123
0.537074
0.562773
0.441993
0.452941
0.4331
0.133435
0.132268
0.131349
0.130716
0.130534
0.131121
0.133032
0.137299
0.112786
0.0835967
0.140611
0.135237
0.142704
0.145917
0.146422
0.150767
0.156897
0.16238
0.13339
0.132168
0.131172
0.130435
0.130098
0.130633
0.132861
0.139774
0.143505
0.13227
0.123745
0.125189
0.13234
0.13367
0.134932
0.135855
0.136493
0.1369
0.137302
0.137729
0.133365
0.132109
0.131062
0.130241
0.129752
0.129911
0.131627
0.136036
0.139275
0.139318
0.140381
0.141014
0.140834
0.140402
0.139957
0.139565
0.139192
0.138722
0.138225
0.137738
0.13335
0.132074
0.130992
0.130114
0.129504
0.129372
0.130251
0.133008
0.135565
0.137152
0.138054
0.138284
0.137816
0.137285
0.136698
0.136154
0.13565
0.135119
0.13459
0.134087
0.133342
0.132052
0.130947
0.130027
0.129336
0.128992
0.129309
0.130701
0.132295
0.133535
0.13408
0.134214
0.133794
0.133313
0.132796
0.132318
0.131868
0.131396
0.130932
0.130483
0.133337
0.132038
0.130916
0.129967
0.129218
0.128738
0.128683
0.129269
0.13004
0.130675
0.130895
0.130829
0.130508
0.130028
0.12962
0.129225
0.128845
0.128442
0.128046
0.127654
0.133335
0.132029
0.130896
0.129925
0.129134
0.128562
0.128283
0.128396
0.12863
0.128807
0.128765
0.128556
0.128267
0.127857
0.127486
0.127124
0.126777
0.126415
0.126069
0.125714
0.133334
0.132024
0.130882
0.129895
0.129073
0.128438
0.128021
0.127856
0.127777
0.127668
0.127444
0.127122
0.1268
0.126408
0.126054
0.125712
0.125386
0.125049
0.12473
0.124394
0.133333
0.132021
0.130873
0.129874
0.129029
0.12835
0.127844
0.127514
0.127248
0.126964
0.12662
0.126229
0.125857
0.125467
0.125113
0.124774
0.124454
0.124127
0.123821
0.123491
0.133334
0.13202
0.130867
0.12986
0.128998
0.128286
0.127721
0.127289
0.126909
0.126517
0.126091
0.125652
0.125243
0.124843
0.124482
0.124138
0.123817
0.123494
0.123193
0.122867
0.133335
0.13202
0.130863
0.12985
0.128977
0.12824
0.127634
0.127137
0.126684
0.126227
0.125738
0.125263
0.124825
0.124415
0.124045
0.123698
0.123374
0.123052
0.122754
0.122429
0.133336
0.132021
0.130862
0.129843
0.128961
0.128207
0.127572
0.127038
0.126536
0.126036
0.125508
0.125009
0.124551
0.124129
0.12375
0.123397
0.12307
0.122747
0.122449
0.122125
0.133338
0.132023
0.130862
0.129839
0.128949
0.128183
0.12753
0.126966
0.126437
0.125906
0.125371
0.124857
0.124385
0.123955
0.123568
0.12321
0.122878
0.122551
0.12225
0.121926
0.13334
0.132025
0.130862
0.129836
0.128939
0.128164