/*--------------------------------*- C++ -*----------------------------------*\
  =========                 |
  \\      /  F ield         | OpenFOAM: The Open Source CFD Toolbox
   \\    /   O peration     | Website:  https://openfoam.org
    \\  /    A nd           | Version:  10
     \\/     M anipulation  |
\*---------------------------------------------------------------------------*/
FoamFile
{
    format      ascii;
    class       volScalarField;
    location    "2000";
    object      omega;
}
// * * * * * * * * * * * * * * * * * * * * * * * * * * * * * * * * * * * * * //

dimensions      [0 0 -1 0 0 0 0];

internalField   nonuniform List<scalar> 
55398
(
1.71864
1.90984
2.56567
4.47459
6.214
9.16565
1.63505
1.40544
1.234
1.1134
1.08185
1.13112
1.91877
5.67182
7.9071
5.77425
4.1222
3.61157
3.23903
2.69083
1.53127
1.3411
1.19053
1.06955
0.973953
0.924259
1.12077
2.03206
8.22496
4.48974
3.47716
2.73371
2.0447
1.6784
1.39214
1.53239
1.34267
1.19317
1.07266
0.975125
0.903704
0.934954
1.15099
2.3312
11.1461
7.36924
2.82857
1.64765
1.37892
1.20807
1.08024
0.967433
0.882961
1.53446
1.34575
1.19689
1.0768
0.979026
0.901846
0.870772
0.949138
1.20479
1.50427
1.79434
1.53962
1.14188
0.931874
0.835895
0.762173
0.711996
0.659012
0.616644
0.586174
1.5364
1.34874
1.20054
1.08087
0.983194
0.903952
0.85123
0.851847
0.869579
0.877714
0.860356
0.806165
0.753301
0.700971
0.654167
0.614785
0.583299
0.552828
0.525051
0.502088
1.53815
1.35149
1.2039
1.08443
0.987362
0.907194
0.846077
0.812909
0.793875
0.775615
0.743576
0.70525
0.667857
0.630402
0.597878
0.568281
0.541974
0.516903
0.493859
0.473199
1.53972
1.35398
1.20698
1.08819
0.990832
0.911139
0.846678
0.799268
0.763557
0.732673
0.699384
0.665926
0.633715
0.602242
0.574237
0.547812
0.523767
0.501071
0.48003
0.460751
1.54057
1.35605
1.20979
1.09157
0.994432
0.914866
0.84884
0.79597
0.753184
0.716523
0.682064
0.6496
0.618933
0.589696
0.563025
0.538213
0.515173
0.493551
0.473309
0.454737
1.54253
1.35833
1.21234
1.09424
0.997513
0.917912
0.851507
0.796287
0.750363
0.711056
0.67546
0.642734
0.612591
0.584129
0.55817
0.533845
0.511233
0.490067
0.470309
0.451928
1.54371
1.36023
1.21468
1.09688
1.00032
0.920596
0.853777
0.797618
0.75035
0.709636
0.673181
0.639907
0.609882
0.581601
0.555785
0.531629
0.509293
0.488336
0.468775
0.450518
1.5448
1.36198
1.21683
1.09931
1.0029
0.923104
0.855932
0.799351
0.751409
0.709675
0.672492
0.639058
0.608641
0.580587
0.554604
0.530635
0.508318
0.487491
0.468037
0.449837
1.5458
1.36359
1.21881
1.10154
1.00532
0.925436
0.85814
0.801171
0.752714
0.710293
0.672634
0.638856
0.608188
0.58004
0.554162
0.5302
0.507902
0.487138
0.467751
0.449591
1.54673
1.3651
1.22065
1.10362
1.0078
0.927467
0.860154
0.80297
0.754042
0.711274
0.673171
0.639055
0.608237
0.580002
0.554044
0.530162
0.507884
0.487153
0.467802
0.449658
1.5476
1.3665
1.22237
1.10555
1.00963
0.92948
0.862063
0.804743
0.755504
0.712411
0.674027
0.63977
0.608687
0.580361
0.554379
0.530484
0.508198
0.487473
0.468137
0.449996
1.54841
1.36782
1.22397
1.10732
1.01132
0.931369
0.8639
0.806458
0.756995
0.713655
0.675123
0.640672
0.609461
0.581057
0.555047
0.531074
0.508781
0.488042
0.468714
0.450562
1.54918
1.36905
1.22546
1.10896
1.01308
0.933047
0.86562
0.808123
0.758515
0.715027
0.676377
0.641792
0.610464
0.581965
0.555859
0.531851
0.509498
0.488716
0.469338
0.451144
1.54979
1.37001
1.22659
1.11016
1.01423
0.9342
0.866716
0.809187
0.759434
0.715823
0.677049
0.642347
0.610889
0.582331
0.556215
0.532019
0.509532
0.488663
0.469221
0.450968
1.71423
1.74654
2.15431
3.36245
6.99392
7.49145
1.63495
1.40522
1.23343
1.10868
1.06419
1.09369
1.82908
5.43857
6.3824
5.20732
3.96082
3.84542
3.28788
2.71849
1.53106
1.34092
1.19065
1.06961
0.973703
0.920302
1.08669
2.03466
8.40866
4.36117
3.37214
2.68176
1.77774
1.67202
1.32337
1.53241
1.34267
1.19321
1.07279
0.975252
0.902837
0.919909
1.13401
2.7314
9.25718
7.5232
2.13112
1.61542
1.36165
1.1889
1.05685
0.943992
0.853529
1.53449
1.34578
1.19695
1.07694
0.979168
0.901802
0.866733
0.939253
1.13281
1.41536
1.61398
1.51395
1.05856
0.927186
0.826996
0.75824
0.706614
0.654281
0.610903
0.577488
1.53642
1.34877
1.20059
1.08099
0.983334
0.904089
0.850398
0.847144
0.861431
0.870543
0.844964
0.80204
0.752645
0.698944
0.651485
0.613701
0.581764
0.55116
0.523259
0.499319
1.53817
1.35151
1.20394
1.08459
0.987431
0.907444
0.846375
0.811557
0.790924
0.772298
0.741112
0.704362
0.667694
0.630304
0.597651
0.567879
0.541375
0.516542
0.493285
0.472155
1.53974
1.35399
1.20701
1.08828
0.990986
0.911096
0.847246
0.799178
0.762719
0.731477
0.698518
0.665522
0.633616
0.60223
0.574091
0.547643
0.523505
0.50089
0.479788
0.460264
1.54071
1.35603
1.20978
1.0916
0.994557
0.914968
0.848867
0.796251
0.753153
0.716186
0.68177
0.649395
0.618705
0.589654
0.562982
0.538116
0.515054
0.493462
0.473227
0.454495
1.54253
1.35835
1.21236
1.09431
0.9976
0.918004
0.851477
0.796688
0.750609
0.711007
0.675379
0.642645
0.612447
0.584112
0.558116
0.533785
0.511164
0.490015
0.470261
0.4518
1.54371
1.36024
1.2147
1.09694
1.0004
0.920751
0.853871
0.797966
0.750594
0.709663
0.673168
0.639831
0.609754
0.581596
0.555747
0.531604
0.509239
0.488304
0.468755
0.450445
1.5448
1.36199
1.21684
1.09935
1.00296
0.923159
0.856296
0.799706
0.751518
0.709722
0.672518
0.639026
0.608517
0.580669
0.554524
0.53059
0.508285
0.487468
0.46803
0.449795
1.5458
1.3636
1.21882
1.10158
1.00537
0.925497
0.858444
0.801474
0.752794
0.710354
0.672663
0.638837
0.608103
0.58003
0.554172
0.530168
0.507881
0.487123
0.467752
0.449567
1.54673
1.36511
1.22066
1.10365
1.00786
0.927626
0.860417
0.803217
0.754118
0.711317
0.673202
0.639012
0.608209
0.580003
0.554046
0.530146
0.507871
0.487144
0.467808
0.449647
1.5476
1.36651
1.22237
1.10557
1.00966
0.929707
0.862299
0.804942
0.755565
0.712446
0.674054
0.639766
0.60867
0.580364
0.554377
0.53047
0.508188
0.487467
0.468144
0.449993
1.54841
1.36782
1.22397
1.10733
1.01136
0.931514
0.86407
0.806604
0.75704
0.713681
0.675144
0.64067
0.609447
0.58106
0.555043
0.531064
0.50877
0.488037
0.468718
0.45056
1.54917
1.36905
1.22546
1.10897
1.01309
0.93314
0.865716
0.808211
0.758544
0.715044
0.67639
0.641788
0.610452
0.581968
0.555862
0.531829
0.509485
0.488709
0.46934
0.451138
1.54978
1.37001
1.22659
1.11016
1.01423
0.934228
0.866747
0.809219
0.759445
0.715828
0.677052
0.642345
0.610881
0.582325
0.556211
0.531998
0.50953
0.488662
0.469225
0.450968
1.71186
1.68472
2.01736
2.92004
5.84755
6.79555
1.63498
1.40524
1.23336
1.10832
1.06409
1.08738
1.73546
4.61366
5.89335
4.87664
3.86427
3.52235
3.19672
2.66186
1.53101
1.34081
1.19064
1.06957
0.973702
0.919571
1.08758
1.91034
8.80208
4.31441
3.35854
2.67574
1.75004
1.65402
1.31516
1.53242
1.34265
1.19322
1.07278
0.975262
0.9029
0.921698
1.12978
2.5126
6.79988
6.84468
2.12434
1.6417
1.36411
1.17572
1.03793
0.936416
0.850462
1.5345
1.34576
1.19695
1.07692
0.979136
0.901838
0.866911
0.940149
1.14955
1.41695
1.58189
1.4626
1.03909
0.91423
0.825424
0.757541
0.702661
0.650358
0.609109
0.575924
1.53644
1.34875
1.20059
1.08097
0.983305
0.904146
0.850388
0.847489
0.862013
0.870525
0.842918
0.800262
0.748028
0.69469
0.650899
0.613538
0.580668
0.549802
0.522685
0.498869
1.53819
1.35149
1.20394
1.08462
0.987366
0.907586
0.8463
0.811614
0.791063
0.772284
0.740389
0.70416
0.667811
0.629612
0.597288
0.567829
0.540966
0.515803
0.492766
0.472009
1.53976
1.35398
1.20701
1.08826
0.990998
0.911211
0.847131
0.799203
0.762762
0.731494
0.698334
0.665429
0.63359
0.602095
0.57388
0.547624
0.523339
0.500551
0.479564
0.460205
1.54083
1.35601
1.20975
1.09155
0.994552
0.914981
0.848918
0.796242
0.753142
0.716211
0.681702
0.649342
0.618716
0.58957
0.562888
0.538097
0.514987
0.493306
0.47314
0.454466
1.54253
1.35834
1.21236
1.0943
0.99759
0.918016
0.851481
0.796672
0.750613
0.711026
0.675351
0.642564
0.61241
0.584064
0.558034
0.533765
0.51113
0.489931
0.470209
0.451788
1.54372
1.36024
1.2147
1.09693
1.00039
0.920744
0.853892
0.797961
0.750601
0.709669
0.673145
0.639789
0.609748
0.581575
0.555681
0.531594
0.509216
0.488257
0.46873
0.450442
1.5448
1.36199
1.21685
1.09935
1.00295
0.923178
0.856275
0.799696
0.751533
0.709728
0.672512
0.639023
0.608515
0.580649
0.554406
0.530549
0.508271
0.487437
0.468017
0.449796
1.5458
1.3636
1.21883
1.10158
1.00536
0.925514
0.858431
0.801466
0.7528
0.710365
0.672658
0.638837
0.608099
0.580015
0.554023
0.530113
0.507874
0.487105
0.467747
0.44957
1.54673
1.3651
1.22067
1.10365
1.00783
0.927674
0.860415
0.803209
0.754129
0.711316
0.673198
0.639032
0.608182
0.580045
0.55394
0.53009
0.507867
0.487133
0.467809
0.449651
1.5476
1.3665
1.22238
1.10557
1.00968
0.929707
0.862308
0.804941
0.755575
0.712445
0.674051
0.639767
0.608661
0.580365
0.554372
0.530435
0.508188
0.487461
0.468149
0.449997
1.54841
1.36782
1.22398
1.10733
1.01138
0.931499
0.864076
0.806604
0.757049
0.71368
0.675142
0.640671
0.609438
0.581061
0.555038
0.531038
0.508769
0.488032
0.468722
0.450564
1.54917
1.36905
1.22547
1.10897
1.01309
0.933137
0.865717
0.808209
0.75855
0.715043
0.676389
0.641789
0.610443
0.58197
0.555858
0.531802
0.50948
0.488699
0.469341
0.451142
1.54978
1.37001
1.2266
1.11016
1.01423
0.934226
0.866747
0.809217
0.759449
0.715828
0.677052
0.642345
0.610871
0.582318
0.556213
0.531964
0.50953
0.488658
0.469229
0.450971
1.7106
1.63844
1.92777
2.69232
5.30537
6.48747
1.635
1.40522
1.23331
1.1092
1.06733
1.08862
1.72364
4.38765
5.55762
4.70565
3.79935
3.40569
3.15522
2.65979
1.53095
1.34071
1.19062
1.06954
0.973694
0.919035
1.08981
1.94365
9.53157
4.29897
3.34495
2.67855
1.75455
1.64897
1.31229
1.53243
1.34264
1.19322
1.07276
0.975268
0.902943
0.923582
1.13808
2.28433
5.34619
6.51574
2.12237
1.66069
1.36882
1.17454
1.03769
0.935142
0.849713
1.53452
1.34575
1.19695
1.0769
0.97911
0.901872
0.867277
0.941554
1.16556
1.43358
1.57629
1.44095
1.03561
0.919094
0.827157
0.757305
0.701614
0.650647
0.608867
0.575152
1.53645
1.34874
1.20058
1.08096
0.983278
0.904191
0.850418
0.847873
0.863093
0.871043
0.841633
0.799138
0.747047
0.695512
0.651245
0.613475
0.58044
0.54984
0.522606
0.498665
1.5382
1.35148
1.20394
1.08463
0.987317
0.907701
0.846217
0.811668
0.791257
0.772349
0.740018
0.704082
0.666396
0.628156
0.597056
0.567752
0.540898
0.515824
0.492779
0.471963
1.53977
1.35397
1.20701
1.08824
0.991002
0.911301
0.847008
0.799198
0.762811
0.731528
0.69826
0.665407
0.632969
0.601256
0.573733
0.547587
0.52332
0.500572
0.479559
0.460188
1.54091
1.35601
1.20972
1.09149
0.994539
0.914991
0.84893
0.796234
0.753136
0.716235
0.681679
0.64931
0.61865
0.589176
0.56285
0.538076
0.514982
0.493316
0.473146
0.454458
1.54253
1.35833
1.21237
1.0943
0.997579
0.918024
0.851472
0.796655
0.750613
0.711043
0.675342
0.6425
0.612421
0.583907
0.558024
0.533749
0.511126
0.489934
0.470204
0.451784
1.54372
1.36024
1.21471
1.09693
1.00037
0.920739
0.853897
0.797954
0.750604
0.709674
0.673131
0.639799
0.609708
0.581459
0.555679
0.53159
0.50921
0.488256
0.468725
0.450444
1.5448
1.36198
1.21685
1.09935
1.00294
0.923191
0.856259
0.799683
0.751542
0.709733
0.672509
0.639022
0.608499
0.580501
0.554456
0.530532
0.508263
0.487434
0.468012
0.449799
1.54581
1.3636
1.21883
1.10157
1.00536
0.925523
0.85842
0.801455
0.752802
0.710373
0.672654
0.638838
0.608092
0.579931
0.554004
0.5301
0.50787
0.487102
0.467744
0.449574
1.54673
1.3651
1.22067
1.10365
1.00781
0.927694
0.860413
0.803201
0.754136
0.711316
0.673194
0.639046
0.608165
0.580025
0.553839
0.530063
0.507863
0.48713
0.467806
0.449655
1.5476
1.3665
1.22238
1.10557
1.00969
0.92969
0.862309
0.804938
0.755582
0.712444
0.674049
0.639768
0.608661
0.580336
0.554252
0.530417
0.508187
0.487458
0.468146
0.450001
1.54841
1.36782
1.22398
1.10733
1.01139
0.93148
0.864075
0.806603
0.757055
0.71368
0.675141
0.640672
0.609438
0.581043
0.554946
0.531031
0.50877
0.48803
0.468718
0.450568
1.54918
1.36905
1.22548
1.10897
1.0131
0.933133
0.865717
0.808207
0.758554
0.715044
0.676389
0.64179
0.610441
0.581956
0.555791
0.5318
0.50948
0.488695
0.469339
0.451146
1.54978
1.37001
1.2266
1.11016
1.01423
0.934224
0.866747
0.809216
0.759451
0.715828
0.677053
0.642345
0.610868
0.582311
0.556176
0.531954
0.509532
0.488657
0.469229
0.450974
1.70987
1.59737
1.84396
2.49188
5.04003
6.30389
1.63502
1.40519
1.23323
1.10966
1.06982
1.08911
1.70305
4.14809
5.355
4.60091
3.7412
3.3311
3.12886
2.65757
1.5309
1.34062
1.19058
1.06951
0.973683
0.918532
1.09031
1.9436
9.94125
4.28809
3.32811
2.67694
1.75748
1.64713
1.31028
1.53244
1.34263
1.19321
1.07275
0.975273
0.90295
0.924948
1.14357
2.12991
4.76588
6.22715
2.10896
1.67197
1.37395
1.17423
1.03741
0.934111
0.848842
1.53453
1.34574
1.19694
1.07689
0.979092
0.901898
0.867633
0.942753
1.17064
1.44489
1.57423
1.42656
1.03287
0.921881
0.828928
0.757396
0.700795
0.650731
0.608664
0.57448
1.53646
1.34873
1.20058
1.08095
0.983259
0.904228
0.850466
0.848219
0.864363
0.871968
0.840918
0.798146
0.746035
0.695936
0.651566
0.613464
0.580252
0.549846
0.522541
0.498486
1.53821
1.35147
1.20394
1.08465
0.987284
0.90779
0.846164
0.81171
0.791474
0.772457
0.739739
0.703949
0.666075
0.628752
0.59699
0.567672
0.540827
0.515835
0.492795
0.471928
1.53978
1.35397
1.20701
1.08823
0.991005
0.911376
0.846917
0.799178
0.762851
0.731556
0.698199
0.66538
0.632834
0.601449
0.573665
0.547543
0.523298
0.500589
0.479561
0.460175
1.54098
1.35602
1.20971
1.09145
0.994524
0.915001
0.848936
0.796227
0.753132
0.716251
0.681663
0.649279
0.61871
0.58913
0.562823
0.538055
0.514976
0.493325
0.473154
0.454453
1.54253
1.35833
1.21237
1.09429
0.997571
0.918031
0.851467
0.796642
0.750612
0.711056
0.675337
0.642447
0.612447
0.583922
0.558024
0.533736
0.511121
0.489936
0.4702
0.451781
1.54372
1.36023
1.21471
1.09693
1.00037
0.920735
0.853902
0.79795
0.750606
0.70968
0.673121
0.639806
0.60969
0.581449
0.555684
0.531587
0.509205
0.488256
0.468722
0.450444
1.5448
1.36198
1.21685
1.09934
1.00293
0.923201
0.856248
0.79967
0.751547
0.709739
0.672507
0.639022
0.608491
0.580449
0.554506
0.530529
0.508257
0.487431
0.468008
0.4498
1.54581
1.3636
1.21884
1.10157
1.00535
0.92553
0.858412
0.801446
0.752802
0.71038
0.672653
0.638838
0.608087
0.579907
0.554015
0.530097
0.507866
0.4871
0.467741
0.449576
1.54674
1.3651
1.22067
1.10365
1.00779
0.927705
0.860414
0.803195
0.75414
0.711317
0.673191
0.639057
0.608153
0.579983
0.553866
0.530052
0.507857
0.487127
0.467803
0.449658
1.5476
1.3665
1.22239
1.10557
1.0097
0.929675
0.862308
0.804936
0.755587
0.712445
0.674047
0.639768
0.608661
0.580324
0.55424
0.530405
0.508185
0.487456
0.468144
0.450004
1.54842
1.36782
1.22398
1.10733
1.01141
0.931465
0.864072
0.806601
0.757059
0.713681
0.67514
0.640671
0.609439
0.581036
0.554924
0.531025
0.50877
0.488027
0.468715
0.45057
1.54918
1.36905
1.22548
1.10897
1.0131
0.93313
0.865716
0.808205
0.758556
0.715044
0.676389
0.64179
0.610445
0.581951
0.555765
0.531798
0.50948
0.488692
0.469337
0.451148
1.54979
1.37001
1.2266
1.11016
1.01423
0.934223
0.866746
0.809215
0.759453
0.715828
0.677053
0.642345
0.610872
0.582318
0.556139
0.531943
0.509532
0.488656
0.469228
0.450976
1.70948
1.56348
1.76808
2.32782
4.90657
6.21461
1.63502
1.40515
1.23313
1.10972
1.0718
1.08921
1.67771
3.93406
5.2506
4.53969
3.69437
3.27299
3.10104
2.6544
1.53086
1.34055
1.19054
1.06949
0.973673
0.918069
1.08902
1.92444
10.3098
4.28463
3.31068
2.67191
1.75873
1.64602
1.30894
1.53244
1.34262
1.19321
1.07275
0.975278
0.90293
0.925807
1.1463
2.03607
4.784
6.14685
2.08822
1.67645
1.37842
1.17451
1.03703
0.933195
0.847924
1.53453
1.34574
1.19694
1.07688
0.97908
0.901918
0.867952
0.943483
1.16768
1.44739
1.57085
1.41599
1.03035
0.923251
0.830456
0.757714
0.700179
0.650645
0.608453
0.57389
1.53646
1.34873
1.20058
1.08094
0.983247
0.904258
0.850523
0.848505
0.865546
0.873151
0.840675
0.797339
0.745088
0.696058
0.651814
0.61348
0.580095
0.549813
0.522478
0.498326
1.53821
1.35147
1.20394
1.08466
0.987263
0.907859
0.846139
0.811746
0.7917
0.772617
0.739546
0.703787
0.665771
0.629157
0.597011
0.567608
0.540753
0.515826
0.492805
0.471898
1.53979
1.35396
1.20701
1.08822
0.991008
0.91144
0.846859
0.799152
0.762882
0.731584
0.69815
0.665353
0.632712
0.60161
0.573643
0.547504
0.52327
0.500595
0.479562
0.460162
1.54104
1.35603
1.2097
1.09142
0.994508
0.91501
0.848941
0.796221
0.753127
0.716262
0.681652
0.649253
0.618744
0.589132
0.562805
0.538034
0.514965
0.49333
0.47316
0.454449
1.54253
1.35832
1.21237
1.09429
0.997565
0.918037
0.851465
0.796631
0.750608
0.711065
0.675335
0.642404
0.612459
0.583947
0.558031
0.533727
0.511115
0.489937
0.470198
0.451778
1.54372
1.36023
1.21471
1.09693
1.00036
0.920732
0.853905
0.797947
0.750607
0.709685
0.673115
0.639809
0.609677
0.581446
0.555689
0.531586
0.5092
0.488255
0.46872
0.450444
1.5448
1.36198
1.21686
1.09934
1.00293
0.923209
0.856241
0.79966
0.751549
0.709744
0.672507
0.639021
0.608485
0.580413
0.554541
0.530533
0.508253
0.487428
0.468004
0.4498
1.54581
1.3636
1.21884
1.10157
1.00535
0.925535
0.858408
0.801437
0.752801
0.710385
0.672654
0.638838
0.608084
0.579892
0.554027
0.530096
0.507863
0.487097
0.467738
0.449577
1.54674
1.3651
1.22068
1.10365
1.00778
0.927712
0.860415
0.80319
0.754143
0.711318
0.67319
0.639065
0.608147
0.579952
0.553894
0.530049
0.507853
0.487123
0.467801
0.449659
1.5476
1.3665
1.22239
1.10557
1.00971
0.929665
0.862305
0.804934
0.755591
0.712447
0.674046
0.639768
0.608662
0.580314
0.554245
0.530398
0.508182
0.487453
0.468142
0.450006
1.54842
1.36782
1.22399
1.10733
1.01142
0.931455
0.864068
0.806599
0.757063
0.713683
0.675139
0.640671
0.609441
0.581028
0.554921
0.531021
0.508769
0.488026
0.468713
0.450572
1.54918
1.36905
1.22548
1.10897
1.0131
0.933128
0.865714
0.808203
0.758558
0.715045
0.676389
0.641791
0.610448
0.581941
0.555756
0.531796
0.50948
0.48869
0.469335
0.45115
1.54979
1.37001
1.22661
1.11016
1.01423
0.934222
0.866746
0.809214
0.759454
0.715829
0.677054
0.642345
0.610876
0.582329
0.556114
0.53193
0.50953
0.488655
0.469227
0.450978
1.70926
1.53745
1.70182
2.19745
4.83795
6.17079
1.63503
1.40512
1.23303
1.10945
1.0732
1.08901
1.65139
3.76665
5.19949
4.50653
3.65972
3.23045
3.07217
2.64965
1.53082
1.34048
1.1905
1.06946
0.973667
0.917646
1.0863
1.8953
10.5346
4.2897
3.29435
2.66462
1.75859
1.64507
1.30804
1.53245
1.34262
1.19321
1.07274
0.975281
0.902893
0.926187
1.14631
1.97886
5.01932
6.27075
2.06466
1.67557
1.3816
1.17515
1.0367
0.932389
0.847013
1.53454
1.34573
1.19694
1.07688
0.979073
0.90193
0.86821
0.943699
1.16034
1.44199
1.56415
1.40817
1.02795
0.92367
0.831651
0.758154
0.699766
0.650476
0.608232
0.573366
1.53647
1.34873
1.20058
1.08094
0.983238
0.904281
0.850584
0.848715
0.866426
0.874364
0.840789
0.796743
0.744262
0.695995
0.651985
0.613509
0.579966
0.549759
0.522413
0.498182
1.53822
1.35147
1.20394
1.08468
0.987251
0.907913
0.846133
0.811776
0.79191
0.772816
0.739435
0.703627
0.665498
0.629417
0.597079
0.567566
0.540683
0.515804
0.492805
0.471872
1.53979
1.35396
1.20701
1.08822
0.991011
0.911493
0.846823
0.799125
0.762905
0.731611
0.698113
0.665329
0.632611
0.601723
0.573649
0.547471
0.52324
0.500594
0.479562
0.460151
1.54108
1.35605
1.20969
1.09139
0.994493
0.915017
0.848945
0.796214
0.753121
0.716268
0.681644
0.649232
0.618764
0.589145
0.562797
0.538014
0.514952
0.493331
0.473165
0.454447
1.54253
1.35832
1.21237
1.09429
0.99756
0.918042
0.851465
0.796623
0.750603
0.711071
0.675334
0.642368
0.612462
0.583968
0.558044
0.533722
0.511108
0.489936
0.470194
0.451775
1.54372
1.36023
1.21471
1.09693
1.00036
0.920729
0.853908
0.797945
0.750608
0.709688
0.67311
0.639809
0.609666
0.581443
0.555697
0.531586
0.509197
0.488253
0.468717
0.450443
1.5448
1.36198
1.21686
1.09934
1.00292
0.923214
0.856237
0.799651
0.751549
0.709749
0.672509
0.63902
0.608481
0.580384
0.55457
0.530541
0.508251
0.487425
0.468001
0.4498
1.54581
1.3636
1.21884
1.10157
1.00535
0.925539
0.858404
0.80143
0.752799
0.710389
0.672655
0.638838
0.608082
0.579879
0.554043
0.530098
0.507861
0.487095
0.467735
0.449578
1.54674
1.3651
1.22068
1.10365
1.00777
0.927715
0.860417
0.803186
0.754145
0.71132
0.673189
0.639071
0.608143
0.579925
0.553924
0.530052
0.507849
0.487121
0.467798
0.44966
1.54761
1.3665
1.22239
1.10557
1.00971
0.929657
0.862302
0.804932
0.755594
0.712449
0.674045
0.639767
0.608663
0.580304
0.554264
0.530397
0.508179
0.48745
0.468139
0.450007
1.54842
1.36782
1.22399
1.10733
1.01143
0.931449
0.864063
0.806597
0.757065
0.713685
0.675139
0.640671
0.609443
0.581018
0.554935
0.531021
0.508768
0.488024
0.46871
0.450572
1.54918
1.36905
1.22548
1.10897
1.0131
0.933127
0.865713
0.808201
0.758559
0.715046
0.67639
0.641791
0.610451
0.581929
0.55577
0.531797
0.509479
0.488688
0.469333
0.451151
1.54979
1.37001
1.22661
1.11016
1.01423
0.934221
0.866745
0.809213
0.759455
0.71583
0.677055
0.642345
0.610879
0.582341
0.556115
0.531921
0.509527
0.488654
0.469227
0.45098
1.70915
1.51859
1.64559
2.09398
4.80252
6.15856
1.63503
1.40509
1.23293
1.10893
1.07391
1.08846
1.62666
3.66279
5.17061
4.49044
3.63624
3.20165
3.04433
2.64288
1.53079
1.34043
1.19046
1.06944
0.973664
0.91726
1.08263
1.86297
10.5426
4.3011
3.28061
2.65597
1.75726
1.64403
1.30739
1.53245
1.34261
1.19321
1.07274
0.975284
0.902847
0.926144
1.14399
1.94684
5.2448
6.45863
2.04176
1.67084
1.38322
1.17587
1.03646
0.931688
0.846143
1.53454
1.34573
1.19694
1.07687
0.979068
0.901936
0.868396
0.943473
1.15157
1.43155
1.5546
1.40173
1.02568
0.923417
0.832449
0.75862
0.699526
0.650288
0.608005
0.572898
1.53647
1.34873
1.20058
1.08093
0.983233
0.904298
0.850644
0.848839
0.866904
0.875384
0.841125
0.79635
0.743564
0.695818
0.652077
0.613538
0.579863
0.549694
0.522346
0.498052
1.53822
1.35147
1.20394
1.08469
0.987244
0.907954
0.846138
0.8118
0.79208
0.773027
0.739393
0.70349
0.665258
0.629569
0.597159
0.567544
0.54062
0.515775
0.492798
0.471849
1.5398
1.35396
1.20701
1.08821
0.991013
0.911536
0.846804
0.799101
0.76292
0.731637
0.698087
0.665306
0.63253
0.601793
0.573666
0.547447
0.523212
0.500589
0.479561
0.460141
1.54111
1.35607
1.20969
1.09137
0.994479
0.915023
0.848949
0.796208
0.753114
0.716269
0.681639
0.649215
0.618775
0.589158
0.562793
0.537997
0.514938
0.493329
0.473168
0.454445
1.54253
1.35832
1.21237
1.09429
0.997557
0.918046
0.851467
0.796617
0.750597
0.711074
0.675334
0.642341
0.612458
0.583984
0.558056
0.53372
0.511103
0.489934
0.470191
0.451771
1.54372
1.36023
1.21471
1.09693
1.00035
0.920727
0.85391
0.797944
0.750608
0.709691
0.673108
0.63981
0.609658
0.581438
0.555703
0.531588
0.509194
0.488251
0.468714
0.450442
1.5448
1.36198
1.21686
1.09934
1.00292
0.923218
0.856235
0.799644
0.751548
0.709752
0.67251
0.63902
0.608477
0.580362
0.554588
0.530551
0.508252
0.487422
0.467997
0.449799
1.54581
1.3636
1.21884
1.10157
1.00534
0.925542
0.858403
0.801424
0.752796
0.710392
0.672656
0.638839
0.60808
0.579869
0.554054
0.530102
0.50786
0.487093
0.467733
0.449577
1.54674
1.3651
1.22068
1.10366
1.00776
0.927717
0.860419
0.803184
0.754146
0.711322
0.673188
0.639076
0.60814
0.579903
0.553943
0.530057
0.507848
0.487118
0.467795
0.44966
1.54761
1.3665
1.22239
1.10557
1.00972
0.929653
0.862298
0.804929
0.755595
0.712451
0.674045
0.639766
0.608664
0.580296
0.554277
0.530398
0.508177
0.487448
0.468137
0.450007
1.54842
1.36781
1.22399
1.10733
1.01143
0.931445
0.864059
0.806595
0.757067
0.713686
0.675139
0.64067
0.609445
0.58101
0.554945
0.531023
0.508768
0.488023
0.468708
0.450573
1.54918
1.36905
1.22549
1.10897
1.0131
0.933126
0.865712
0.8082
0.75856
0.715047
0.67639
0.641791
0.610453
0.58192
0.55578
0.531799
0.50948
0.488686
0.469331
0.451151
1.54979
1.37001
1.22661
1.11016
1.01423
0.934221
0.866745
0.809212
0.759455
0.71583
0.677056
0.642346
0.610881
0.582351
0.556118
0.531914
0.509523
0.488652
0.469226
0.450981
1.70909
1.50554
1.59909
2.0112
4.78618
6.17246
1.63503
1.40507
1.23284
1.10824
1.07388
1.08753
1.60515
3.62896
5.14586
4.48345
3.62233
3.18413
3.01984
2.63404
1.53077
1.34038
1.19042
1.06941
0.973662
0.916906
1.07853
1.83246
10.4174
4.31546
3.27062
2.64676
1.75495
1.64273
1.30684
1.53245
1.34261
1.19321
1.07273
0.975286
0.902794
0.925753
1.13994
1.92847
5.36583
6.62959
2.02154
1.66376
1.38325
1.17643
1.03627
0.931071
0.845322
1.53454
1.34573
1.19694
1.07687
0.979065
0.901939
0.868503
0.942902
1.14317
1.4188
1.54368
1.39559
1.02356
0.922714
0.832869
0.759038
0.699415
0.650112
0.607783
0.572477
1.53647
1.34873
1.20058
1.08093
0.983229
0.90431
0.850697
0.848879
0.866984
0.87605
0.841538
0.796125
0.742992
0.69558
0.6521
0.613558
0.579782
0.549626
0.522279
0.497935
1.53822
1.35147
1.20394
1.0847
0.987241
0.907987
0.84615
0.811817
0.792199
0.773221
0.7394
0.703379
0.665051
0.629646
0.597234
0.567539
0.540568
0.515739
0.492785
0.471826
1.5398
1.35396
1.20701
1.08821
0.991016
0.911572
0.846796
0.799081
0.762926
0.73166
0.698068
0.665285
0.632465
0.601836
0.573685
0.54743
0.523185
0.50058
0.479558
0.460133
1.54114
1.35609
1.20969
1.09136
0.994466
0.915028
0.848953
0.796203
0.753105
0.716267
0.681634
0.6492
0.618779
0.589169
0.562792
0.537984
0.514924
0.493325
0.473169
0.454443
1.54253
1.35832
1.21237
1.09429
0.997554
0.918049
0.851469
0.796612
0.750591
0.711074
0.675333
0.64232
0.612451
0.583995
0.558068
0.53372
0.511098
0.489932
0.470188
0.451768
1.54372
1.36023
1.21471
1.09693
1.00035
0.920726
0.853912
0.797943
0.750607
0.709693
0.673106
0.63981
0.609652
0.581433
0.555707
0.53159
0.509192
0.48825
0.468711
0.45044
1.54481
1.36198
1.21686
1.09935
1.00292
0.923222
0.856235
0.799638
0.751546
0.709754
0.672512
0.63902
0.608474
0.580343
0.554599
0.530561
0.508254
0.487421
0.467994
0.449798
1.54581
1.36359
1.21884
1.10158
1.00534
0.925545
0.858402
0.801419
0.752794
0.710394
0.672658
0.638839
0.608078
0.579861
0.554062
0.530106
0.50786
0.487092
0.46773
0.449577
1.54674
1.3651
1.22068
1.10366
1.00775
0.927718
0.860421
0.803182
0.754146
0.711323
0.673188
0.63908
0.608139
0.579886
0.553956
0.530064
0.507847
0.487115
0.467792
0.44966
1.54761
1.3665
1.22239
1.10558
1.00972
0.92965
0.862295
0.804927
0.755597
0.712452
0.674045
0.639766
0.608664
0.58029
0.554286
0.530401
0.508176
0.487446
0.468135
0.450007
1.54842
1.36781
1.22399
1.10734
1.01144
0.931443
0.864056
0.806592
0.757068
0.713688
0.67514
0.64067
0.609446
0.581004
0.554952
0.531026
0.508768
0.488022
0.468706
0.450572
1.54918
1.36905
1.22549
1.10897
1.0131
0.933125
0.865712
0.808199
0.758561
0.715048
0.676391
0.641792
0.610455
0.581914
0.555786
0.531802
0.50948
0.488685
0.469329
0.451151
1.54979
1.37001
1.22661
1.11016
1.01423
0.934221
0.866744
0.809211
0.759456
0.715831
0.677056
0.642346
0.610883
0.58236
0.556123
0.531909
0.509518
0.48865
0.469225
0.450981
1.70906
1.49685
1.56164
1.94458
4.78349
6.20126
1.63503
1.40505
1.23275
1.10747
1.07316
1.08618
1.58763
3.65889
5.1168
4.4798
3.61573
3.17519
3.00033
2.62361
1.53075
1.34034
1.19038
1.06939
0.973657
0.916582
1.07442
1.80757
10.2965
4.33097
3.26518
2.63767
1.75191
1.64111
1.30629
1.53245
1.34261
1.19321
1.07273
0.975286
0.902739
0.925109
1.13491
1.9148
5.36556
6.76718
2.00491
1.65554
1.38191
1.17666
1.03609
0.93052
0.844557
1.53455
1.34574
1.19695
1.07687
0.979063
0.901938
0.868533
0.942066
1.13593
1.4055
1.53249
1.3893
1.02157
0.921726
0.83295
0.759352
0.699382
0.649967
0.607573
0.572098
1.53648
1.34873
1.20058
1.08093
0.983228
0.90432
0.850741
0.848841
0.866733
0.876278
0.841891
0.796014
0.742538
0.695318
0.652068
0.613563
0.579714
0.549556
0.522213
0.49783
1.53822
1.35147
1.20394
1.08471
0.987241
0.908012
0.846166
0.811827
0.792259
0.77337
0.739431
0.703297
0.664877
0.629671
0.597296
0.567547
0.540526
0.515703
0.492768
0.471804
1.5398
1.35397
1.20701
1.08821
0.991019
0.911601
0.846795
0.799067
0.762926
0.731677
0.698054
0.665264
0.632412
0.601859
0.573704
0.547419
0.523161
0.500568
0.479553
0.460124
1.54116
1.35612
1.2097
1.09135
0.994455
0.915031
0.848957
0.796198
0.753096
0.716261
0.681628
0.649188
0.618779
0.589179
0.562793
0.537973
0.514911
0.49332
0.473169
0.454441
1.54253
1.35832
1.21237
1.09429
0.997553
0.918052
0.851471
0.796608
0.750584
0.711071
0.675331
0.642302
0.612441
0.584002
0.558079
0.533722
0.511095
0.48993
0.470186
0.451765
1.54372
1.36023
1.21471
1.09693
1.00035
0.920726
0.853914
0.797943
0.750606
0.709694
0.673105
0.63981
0.609646
0.581428
0.555709
0.531592
0.509191
0.488248
0.468709
0.450438
1.54481
1.36198
1.21686
1.09935
1.00292
0.923225
0.856235
0.799634
0.751544
0.709755
0.672513
0.63902
0.608472
0.580328
0.554605
0.530569
0.508257
0.487421
0.467992
0.449796
1.54581
1.36359
1.21884
1.10158
1.00534
0.925547
0.858402
0.801416
0.752791
0.710395
0.672659
0.63884
0.608077
0.579854
0.554066
0.530111
0.507861
0.487091
0.467728
0.449576
1.54674
1.3651
1.22068
1.10366
1.00775
0.927718
0.860422
0.803181
0.754146
0.711324
0.673188
0.639082
0.608139
0.579872
0.553963
0.530071
0.507848
0.487113
0.46779
0.449659
1.54761
1.3665
1.2224
1.10558
1.00973
0.929649
0.862293
0.804925
0.755597
0.712453
0.674046
0.639766
0.608664
0.580285
0.554293
0.530404
0.508175
0.487444
0.468133
0.450007
1.54842
1.36782
1.22399
1.10734
1.01145
0.931442
0.864053
0.80659
0.757068
0.713689
0.67514
0.64067
0.609447
0.580999
0.554957
0.531029
0.508769
0.488022
0.468705
0.450572
1.54918
1.36905
1.22549
1.10898
1.01311
0.933125
0.865711
0.808198
0.758561
0.715049
0.676391
0.641792
0.610457
0.581909
0.555791
0.531806
0.509481
0.488685
0.469328
0.451151
1.54979
1.37001
1.22661
1.11016
1.01423
0.934221
0.866744
0.809211
0.759456
0.715831
0.677057
0.642346
0.610884
0.582367
0.556128
0.531906
0.509514
0.488647
0.469224
0.450981
1.70904
1.49124
1.53227
1.89097
4.79178
6.23523
1.63503
1.40503
1.23267
1.10666
1.07188
1.08442
1.57402
3.73272
5.08093
4.47556
3.61397
3.17231
2.98649
2.61243
1.53073
1.34031
1.19035
1.06936
0.973648
0.916282
1.07064
1.79071
10.2474
4.3479
3.2646
2.62943
1.74844
1.63918
1.30569
1.53246
1.34261
1.1932
1.07273
0.975286
0.902682
0.924303
1.12959
1.90273
5.29962
6.87192
1.99207
1.64712
1.37949
1.17649
1.03587
0.930004
0.843843
1.53455
1.34574
1.19695
1.07688
0.979063
0.901934
0.86849
0.941034
1.12994
1.39255
1.5215
1.38271
1.01968
0.920566
0.832746
0.759531
0.699386
0.649853
0.607383
0.571757
1.53648
1.34873
1.20059
1.08094
0.983227
0.904327
0.850772
0.84873
0.866243
0.876073
0.84208
0.795956
0.742181
0.695055
0.651995
0.61355
0.579654
0.549488
0.522147
0.497733
1.53823
1.35147
1.20394
1.08471
0.987243
0.908032
0.846184
0.811828
0.792264
0.773458
0.739468
0.703237