/*--------------------------------*- C++ -*----------------------------------*\
  =========                 |
  \\      /  F ield         | OpenFOAM: The Open Source CFD Toolbox
   \\    /   O peration     | Website:  https://openfoam.org
    \\  /    A nd           | Version:  10
     \\/     M anipulation  |
\*---------------------------------------------------------------------------*/
FoamFile
{
    format      ascii;
    class       volScalarField;
    location    "2000";
    object      p;
}
// * * * * * * * * * * * * * * * * * * * * * * * * * * * * * * * * * * * * * //

dimensions      [0 2 -2 0 0 0 0];

internalField   nonuniform List<scalar> 
55398
(
19.3166
15.2049
18.0114
18.155
19.5479
23.7956
16.9383
15.5262
16.9773
17.5979
19.3588
22.8095
28.0416
35.0645
-13.6145
-8.10918
-3.78592
0.366578
0.767027
0.13168
15.8422
15.3518
16.0977
16.8791
18.1776
20.2757
21.3726
19.9583
-15.1568
-15.1862
-7.26644
-3.15843
-1.29912
-0.364606
-0.0108691
15.1679
14.8003
15.2867
15.7241
16.3523
16.7316
15.3262
8.40676
-32.9108
-52.1346
-26.0998
-18.8324
-13.4348
-7.37246
-3.88161
-1.46029
-1.21892
-0.0910889
14.454
14.1767
14.3822
14.4932
14.4455
13.6465
10.2373
-2.46892
-30.3278
-45.5297
-61.0338
-44.8774
-27.5634
-18.1954
-13.1708
-8.0804
-4.64227
-2.08891
-1.62408
-0.459757
13.748
13.505
13.48
13.2692
12.6792
10.9722
6.79224
-5.18816
-28.4491
-40.1674
-45.6414
-36.5487
-24.3773
-18.1083
-13.1141
-8.62274
-5.30737
-2.80391
-1.88428
-0.676001
13.0397
12.813
12.5846
12.0839
11.0264
8.80815
4.0489
-5.59918
-24.0285
-33.6862
-39.0095
-32.1754
-23.5468
-17.8679
-13.1861
-9.04338
-5.81362
-3.31654
-2.05845
-0.882821
12.3507
12.1226
11.7231
10.9769
9.56794
7.00427
2.16928
-6.27332
-20.7279
-29.0269
-33.2689
-29.2775
-22.4474
-17.3286
-12.98
-9.22678
-6.16025
-3.78026
-2.22936
-1.06309
11.6829
11.4344
10.8935
9.95892
8.30902
5.56776
0.778088
-6.60332
-18.0542
-25.1987
-28.9852
-26.3356
-21.1177
-16.7675
-12.8488
-9.42369
-6.45064
-4.13724
-2.34653
-1.20226
11.0567
10.7884
10.1326
9.04406
7.23216
4.3782
-0.226005
-6.76865
-16.0373
-22.2066
-25.5199
-24.0611
-20.0426
-16.243
-12.6663
-9.49571
-6.61935
-4.40524
-2.44349
-1.3187
10.4857
10.2095
9.46096
8.24901
6.31725
3.41715
-0.985283
-6.82808
-14.4728
-19.802
-22.814
-21.9992
-18.8984
-15.6493
-12.423
-9.52655
-6.75082
-4.61777
-2.50955
-1.40207
9.97437
9.68787
8.867
7.56033
5.55379
2.63833
-1.52448
-6.79818
-13.239
-17.9325
-20.6358
-20.3184
-17.9599
-15.1775
-12.2223
-9.53584
-6.83217
-4.77201
-2.55399
-1.46509
9.52592
9.22897
8.35328
6.97691
4.92467
2.03707
-1.90652
-6.73635
-12.2756
-16.4524
-18.9207
-18.9197
-17.1063
-14.7037
-11.9979
-9.49365
-6.87103
-4.88638
-2.58546
-1.51261
9.14502
8.83896
7.92267
6.49663
4.42317
1.57279
-2.1833
-6.66214
-11.5249
-15.3405
-17.5837
-17.7777
-16.4129
-14.3134
-11.8048
-9.46063
-6.89751
-4.97242
-2.60854
-1.54849
8.8354
8.52199
7.57656
6.11584
4.03082
1.22189
-2.37744
-6.60127
-10.9479
-14.49
-16.5468
-16.8883
-15.8655
-13.9749
-11.6304
-9.4117
-6.90018
-5.02827
-2.62035
-1.57283
8.60032
8.28156
7.31608
5.83165
3.74231
0.963469
-2.51384
-6.53293
-10.5747
-13.8234
-15.7785
-16.3042
-15.4692
-13.7238
-11.5047
-9.37652
-6.90489
-5.07162
-2.63071
-1.59094
8.44232
8.11962
7.14193
5.64348
3.55394
0.797886
-2.59351
-6.48597
-10.3147
-13.4464
-15.3591
-15.8138
-15.1915
-13.5438
-11.4088
-9.3459
-6.89989
-5.09443
-2.63343
-1.59984
8.36307
8.03813
7.05455
5.54943
3.45888
0.714007
-2.63676
-6.47743
-10.1758
-13.2654
-15.1229
-15.5632
-15.0903
-13.4576
-11.359
-9.32861
-6.89802
-5.10654
-2.63451
-1.60243
19.2825
15.5725
17.9545
18.224
21.081
23.8835
16.9382
15.5564
16.9781
17.6769
19.4607
22.9173
28.6084
35.9823
-14.9428
-7.7029
-3.58734
0.81566
1.46578
2.37011
15.8056
15.2877
16.0655
16.9126
18.1512
20.3067
21.6
19.4673
-17.9594
-15.2137
-7.58209
-2.92498
0.379707
0.424621
1.27979
15.1462
14.7397
15.2567
15.7626
16.3352
16.8011
15.4856
8.38065
-31.662
-50.0004
-26.1733
-15.6348
-13.4856
-7.42057
-3.67753
-1.13688
-0.991445
0.506186
14.4377
14.1268
14.3559
14.5219
14.4259
13.7484
10.3028
-2.06492
-29.4416
-45.4546
-59.4401
-44.7375
-25.8887
-17.7464
-13.1772
-8.05804
-4.5488
-1.96634
-1.43719
-0.11018
13.7342
13.4617
13.4569
13.2912
12.665
11.0617
6.85225
-4.89966
-27.9846
-39.8457
-45.9175
-36.5662
-24.3967
-17.888
-13.0811
-8.61101
-5.25102
-2.75986
-1.74422
-0.427749
13.0275
12.7745
12.5637
12.1059
11.0312
8.90202
4.13048
-5.43523
-23.8285
-33.4596
-38.6385
-32.0702
-23.545
-17.7544
-13.1307
-9.01344
-5.77301
-3.30802
-1.96631
-0.698261
12.3412
12.0907
11.7069
10.997
9.59794
7.05597
2.22901
-6.16298
-20.5475
-28.8693
-33.0737
-29.1783
-22.4086
-17.2971
-12.9727
-9.21124
-6.13298
-3.78139
-2.16932
-0.906898
11.6819
11.4262
10.8981
9.98363
8.33923
5.58208
0.806598
-6.49367
-17.9473
-25.0793
-28.8788
-26.2275
-21.0791
-16.75
-12.8464
-9.40243
-6.42922
-4.13783
-2.29417
-1.07013
11.0612
10.798
10.1516
9.07556
7.25813
4.38974
-0.185394
-6.67997
-15.9614
-22.1214
-25.4385
-23.96
-19.9936
-16.2366
-12.6502
-9.47592
-6.60293
-4.40481
-2.39178
-1.20635
10.4901
10.2181
9.4769
8.275
6.33993
3.44096
-0.93016
-6.76395
-14.4165
-19.747
-22.7575
-21.9069
-18.8413
-15.6514
-12.4081
-9.50986
-6.73364
-4.61693
-2.46558
-1.30943
9.97789
9.69436
8.87941
7.581
5.57164
2.66742
-1.46806
-6.75499
-13.2022
-17.8918
-20.5948
-20.2368
-17.8855
-15.1859
-12.2065
-9.51808
-6.81719
-4.77134
-2.51854
-1.3909
9.52863
9.23391
8.36298
6.99349
4.93963
2.06247
-1.8656
-6.70509
-12.2499
-16.4206
-18.8892
-18.86
-17.045
-14.7066
-11.9902
-9.48072
-6.8588
-4.88601
-2.55762
-1.45416
9.147
8.84273
7.9301
6.50979
4.43562
1.5954
-2.1531
-6.63844
-11.506
-15.3183
-17.5616
-17.7447
-16.3751
-14.3098
-11.7942
-9.45211
-6.88864
-4.97235
-2.58691
-1.5032
8.83707
8.52479
7.58207
6.12539
4.04274
1.23989
-2.35618
-6.58452
-10.9351
-14.4742
-16.533
-16.8743
-15.8497
-13.9678
-11.6223
-9.40439
-6.894
-5.02839
-2.60439
-1.53908
8.6015
8.2835
7.31992
5.83823
3.75223
0.975316
-2.50012
-6.5221
-10.5667
-13.8134
-15.7701
-16.296
-15.4612
-13.7183
-11.4973
-9.37157
-6.90082
-5.07135
-2.61953
-1.56708
8.44282
8.12083
7.14426
5.64746
3.55934
0.80509
-2.58666
-6.48066
-10.3103
-13.4411
-15.3547
-15.8088
-15.1866
-13.5404
-11.4055
-9.34289
-6.89818
-5.09447
-2.627
-1.58564
8.36331
8.03872
7.05571
5.55117
3.46115
0.716274
-2.63486
-6.47596
-10.174
-13.2628
-15.1209
-15.5611
-15.0878
-13.4547
-11.3572
-9.32665
-6.89614
-5.10545
-2.62966
-1.59483
19.3195
15.5991
17.8407
18.1324
19.9449
24.0373
16.9482
15.5724
16.9432
17.5606
19.2843
22.6243
27.1892
33.079
-15.3556
-7.87079
-3.6942
0.230354
1.42315
0.562457
15.7858
15.2564
16.0063
16.8163
18.0282
19.9814
20.5942
17.6652
-16.6441
-15.6871
-7.68656
-3.50049
-0.200314
-0.132284
0.567685
15.124
14.6949
15.1927
15.6588
16.2012
16.5346
14.7811
7.63184
-31.5712
-50.9673
-25.3326
-17.4421
-13.8808
-7.58193
-3.69416
-1.53552
-1.32318
0.0175956
14.418
14.0857
14.3008
14.4326
14.3098
13.5429
9.83577
-2.21695
-29.0827
-45.4151
-59.3212
-44.2116
-25.6988
-18.423
-13.5272
-8.17314
-4.58001
-2.0949
-1.64774
-0.365768
13.717
13.4257
13.4097
13.2166
12.5709
10.9054
6.56389
-5.0476
-27.8597
-39.8241
-45.4512
-36.4055
-24.1204
-17.8567
-13.2618
-8.69175
-5.27076
-2.82089
-1.88796
-0.602579
13.0128
12.744
12.5238
12.0444
10.9592
8.78853
3.96352
-5.49716
-23.7308
-33.3994
-38.3908
-32.0308
-23.446
-17.7037
-13.2201
-9.06428
-5.79211
-3.32308
-2.04778
-0.834263
12.3293
12.0662
11.6747
10.948
9.54407
7.0301
2.15512
-6.18952
-20.475
-28.8083
-32.9998
-29.156
-22.3834
-17.2771
-13.0264
-9.25857
-6.15126
-3.75817
-2.19596
-1.01041
11.6733
11.4092
10.8749
9.94614
8.30001
5.56739
0.788463
-6.50893
-17.9033
-25.033
-28.8203
-26.1887
-21.0761
-16.7279
-12.8612
-9.4349
-6.44151
-4.1098
-2.30705
-1.14892
11.0562
10.7885
10.137
9.04745
7.2285
4.37492
-0.204967
-6.68813
-15.9393
-22.0895
-25.3948
-23.9154
-19.9747
-16.2166
-12.6508
-9.50061
-6.61389
-4.379
-2.39729
-1.26352
10.4868
10.212
9.46626
8.25268
6.3168
3.41523
-0.945879
-6.76133
-14.4127
-19.7303
-22.7328
-21.879
-18.8233
-15.6352
-12.4042
-9.5281
-6.74299
-4.59504
-2.46845
-1.3529
9.97548
9.68979
8.87129
7.56375
5.55328
2.65069
-1.48593
-6.75904
-13.2007
-17.8856
-20.5861
-20.2328
-17.8841
-15.1541
-12.1925
-9.53418
-6.82273
-4.75297
-2.5198
-1.42414
9.52659
9.23043
8.3568
6.98039
4.92574
2.05043
-1.87629
-6.70937
-12.25
-16.4188
-18.8865
-18.8626
-17.0482
-14.6767
-11.9548
-9.48794
-6.86214
-4.87091
-2.55819
-1.47936
9.14551
8.84012
7.92555
6.50007
4.42395
1.58654
-2.15829
-6.64099
-11.507
-15.3181
-17.5614
-17.748
-16.3759
-14.2974
-11.7691
-9.45216
-6.89054
-4.96024
-2.58687
-1.52187
8.83601
8.52298
7.57899
6.11879
4.03596
1.23363
-2.35778
-6.58586
-10.9366
-14.4748
-16.5339
-16.8734
-15.8522
-13.9645
-11.6165
-9.4038
-6.8952
-5.01932
-2.60428
-1.55248
8.60089
8.28238
7.31812
5.83438
3.74772
0.973295
-2.49945
-6.52212
-10.5675
-13.814
-15.7716
-16.2954
-15.4626
-13.7174
-11.4926
-9.36957
-6.90048
-5.06448
-2.61892
-1.57551
8.44257
8.12031
7.14352
5.64583
3.55782
0.805547
-2.58457
-6.47943
-10.3101
-13.4412
-15.3556
-15.8083
-15.1876
-13.5409
-11.402
-9.34023
-6.89697
-5.0902
-2.62619
-1.58968
8.36334
8.03868
7.05581
5.55124
3.46193
0.717976
-2.63223
-6.47399
-10.1731
-13.2622
-15.1218
-15.5617
-15.0879
-13.4523
-11.3546
-9.32627
-6.89655
-5.10497
-2.63071
-1.59841
19.344
15.5666
17.7455
18.0587
19.9232
24.0836
16.9648
15.5632
16.9195
17.5452
19.2797
22.6289
27.2509
33.1485
-15.4338
-7.96452
-3.67152
-0.045211
1.07956
0.652764
15.7918
15.2634
16.0019
16.7976
18.0104
19.9061
20.3356
17.8871
-16.9923
-15.6377
-7.7961
-3.41529
-1.00962
-0.332562
0.354791
15.1291
14.7014
15.1927
15.6401
16.1847
16.4757
14.56
7.63228
-31.8653
-51.9941
-24.8838
-17.8125
-13.7754
-7.58715
-3.78409
-1.98228
-1.4175
-0.11888
14.4205
14.0898
14.3019
14.417
14.2961
13.4839
9.69013
-2.33584
-29.2215
-45.6294
-59.4099
-44.113
-25.6783
-18.6612
-13.4947
-8.17671
-4.64477
-2.32312
-1.71708
-0.440449
13.7183
13.4283
13.4105
13.2031
12.5589
10.8584
6.47337
-5.14463
-27.9158
-39.926
-45.2852
-36.5254
-24.174
-18.0506
-13.2843
-8.69289
-5.32248
-2.97103
-1.94615
-0.655851
13.0137
12.7461
12.5247
12.0329
10.9485
8.75324
3.90771
-5.55641
-23.7402
-33.4698
-38.3756
-32.1186
-23.3944
-17.7707
-13.2897
-9.06991
-5.83254
-3.43534
-2.10114
-0.873495
12.3296
12.0676
11.6749
10.9385
9.53243
7.00524
2.13029
-6.2252
-20.4869
-28.8426
-33.0163
-29.1902
-22.2432
-17.1976
-13.0731
-9.26491
-6.18312
-3.85263
-2.24583
-1.04221
11.6729
11.4085
10.8728
9.93696
8.28829
5.55665
0.770412
-6.54191
-17.9134
-25.0533
-28.8146
-26.199
-20.9997
-16.6515
-12.8867
-9.43952
-6.46554
-4.1839
-2.3504
-1.17626
11.0552
10.7862
10.133
9.03799
7.21835
4.37106
-0.222076
-6.71345
-15.9482
-22.1003
-25.3995
-23.9105
-19.9335
-16.1705
-12.6674
-9.50616
-6.6341
-4.43513
-2.43199
-1.28601
10.4859
10.2097
9.46252
8.2443
6.30844
3.41223
-0.962129
-6.77964
-14.4211
-19.737
-22.7417
-21.8793
-18.7962
-15.5997
-12.414
-9.53224
-6.75936
-4.63858
-2.49637
-1.37151
9.97459
9.68801
8.86837
7.55711
5.5468
2.64583
-1.49998
-6.77166
-13.2089
-17.8916
-20.5942
-20.2301
-17.8764
-15.1253
-12.2038
-9.5366
-6.83596
-4.78689
-2.54169
-1.43896
9.52596
9.22911
8.35455
6.97514
4.92093
2.04458
-1.88644
-6.7173
-12.2558
-16.4242
-18.8929
-18.86
-17.0434
-14.663
-11.9669
-9.49146
-6.872
-4.89692
-2.57533
-1.49108
9.14519
8.83913
7.92382
6.49597
4.42113
1.581
-2.16533
-6.64654
-11.511
-15.3222
-17.5661
-17.7458
-16.3718
-14.2743
-11.7763
-9.45834
-6.89777
-4.97996
-2.60013
-1.53097
8.83569
8.52224
7.57772
6.11594
4.03376
1.22986
-2.36214
-6.58971
-10.9396
-14.4778
-16.537
-16.8722
-15.8467
-13.9379
-11.6068
-9.40852
-6.90013
-5.0341
-2.61438
-1.55943
8.6007
8.28186
7.31722
5.83251
3.7454
0.970692
-2.5022
-6.5243
-10.5695
-13.8159
-15.7736
-16.2952
-15.4581
-13.6973
-11.481
-9.37195
-6.90327
-5.07499
-2.62602
-1.58054
8.44266
8.11998
7.14291
5.64461
3.55615
0.803796
-2.58596
-6.48028
-10.3112
-13.4423
-15.3569
-15.8083
-15.1853
-13.5291
-11.3937
-9.34128
-6.89788
-5.09684
-2.63034
-1.59283
8.36337
8.03852
7.05542
5.55054
3.46098
0.717187
-2.63267
-6.47416
-10.1738
-13.2627
-15.1228
-15.5616
-15.0873
-13.4469
-11.3517
-9.32901
-6.89834
-5.11116
-2.63486
-1.60092
19.3497
15.5338
17.69
18.0131
19.9554
24.107
16.9653
15.5458
16.8939
17.5243
19.2657
22.6087
27.1396
33.148
-15.392
-8.04403
-3.69134
0.0204419
1.07778
0.570151
15.7971
15.2659
16.0024
16.8018
18.0153
19.9364
20.3456
17.7332
-17.9526
-15.6251
-7.84934
-3.45237
-0.938036
-0.185311
0.419245
15.1364
14.7097
15.2012
15.6498
16.1999
16.5146
14.5923
7.58394
-32.1438
-52.7113
-24.5789
-17.6446
-13.6173
-7.57353
-3.82224
-1.94995
-1.35032
-0.0557922
14.4267
14.0991
14.3124
14.4276
14.3122
13.5106
9.70328
-2.36736
-29.3801
-45.8038
-59.4105
-44.1672
-25.5355
-18.5807
-13.3917
-8.16111
-4.64809
-2.36162
-1.67372
-0.40528
13.7236
13.4362
13.42
13.2119
12.5722
10.8787
6.48357
-5.15083
-27.9932
-40.0155
-45.3038
-36.655
-24.1335
-18.0753
-13.2366
-8.67758
-5.32244
-3.02312
-1.92382
-0.635187
13.0179
12.7529
12.533
12.0406
10.9587
8.76703
3.91316
-5.56518
-23.7804
-33.5424
-38.4289
-32.1907
-23.3446
-17.8147
-13.2698
-9.05747
-5.83009
-3.47274
-2.08841
-0.856154
12.3329
12.0729
11.6815
10.9452
9.53914
7.0076
2.12971
-6.2358
-20.5174
-28.8888
-33.0365
-29.2459
-22.2522
-17.2331
-13.0587
-9.25764
-6.18102
-3.87997
-2.24224
-1.02867
11.6754
11.4119
10.8772
9.94182
8.29216
5.55665
0.764624
-6.55492
-17.9323
-25.0846
-28.8168
-26.2338
-21.0302
-16.6882
-12.8851
-9.43402
-6.46263
-4.2055
-2.35071
-1.1657
11.0567
10.7879
10.1357
9.04108
7.22086
4.37295
-0.226074
-6.72273
-15.9592
-22.1185
-25.4099
-23.9296
-19.9478
-16.1945
-12.6701
-9.50436
-6.63192
-4.45168
-2.43323
-1.27788
10.4869
10.2105
9.46428
8.24638
6.31029
3.41555
-0.963469
-6.78647
-14.4274
-19.747
-22.7511
-21.8824
-18.8116
-15.6118
-12.4167
-9.53087
-6.7569
-4.65178
-2.49816
-1.36541
9.97523
9.68856
8.86964
7.55864
5.54841
2.6486
-1.50044
-6.77578
-13.2132
-17.8968
-20.6001
-20.2265
-17.8912
-15.1316
-12.2049
-9.53465
-6.83413
-4.79752
-2.54348
-1.43431
9.52633
9.2295
8.35548
6.97618
4.9223
2.04612
-1.88685
-6.71928
-12.2581
-16.4271
-18.8966
-18.8562
-17.0549
-14.6625
-11.9696
-9.48999
-6.8703
-4.90555
-2.5771
-1.48759
9.14555
8.83938
7.92448
6.49663
4.42272
1.58198
-2.16598
-6.64808
-11.5124
-15.3238
-17.5685
-17.7425
-16.3814
-14.2733
-11.7817
-9.457
-6.89656
-4.98695
-2.60176
-1.52844
8.83584
8.52241
7.57815
6.1164
4.03485
1.2304
-2.36279
-6.59097
-10.9407
-14.4789
-16.5384
-16.8707
-15.8536
-13.9478
-11.6118
-9.40763
-6.89908
-5.0397
-2.61598
-1.55776
8.60078
8.28194
7.31744
5.83272
3.74575
0.970558
-2.5032
-6.52539
-10.5703
-13.8165
-15.7743
-16.2948
-15.4629
-13.7058
-11.4875
-9.37229
-6.9025
-5.07951
-2.62775
-1.57975
8.44268
8.12003
7.14295
5.64455
3.556
0.803088
-2.5872
-6.48134
-10.3121
-13.4429
-15.3576
-15.8079
-15.1882
-13.5333
-11.3974
-9.34206
-6.89697
-5.10017
-2.63198
-1.5926
8.36337
8.03847
7.05528
5.55018
3.46031
0.716187
-2.63394
-6.47518
-10.1747
-13.2633
-15.1234
-15.561
-15.0897
-13.4515
-11.355
-9.32965
-6.89756
-5.11362
-2.63637
-1.6008
19.3483
15.5141
17.6657
18.0048
19.9753
24.1191
16.9629
15.5346
16.8808
17.5163
19.2597
22.6026
27.0982
33.1023
-15.2925
-8.10078
-3.7129
0.0215019
1.08473
0.591152
15.7954
15.2592
15.9957
16.7985
18.0094
19.9379
20.3337
17.687
-18.626
-15.6126
-7.88074
-3.49284
-0.785742
-0.134409
0.462684
15.1366
14.7057
15.1986
15.6495
16.1972
16.5196
14.5888
7.53893
-32.282
-52.9781
-24.4746
-17.6023
-13.563
-7.59298
-3.84689
-1.8643
-1.3199
-0.0242654
14.4273
14.0974
14.3121
14.429
14.3121
13.5143
9.69139
-2.40076
-29.5308
-45.937
-59.3673
-44.0704
-25.3976
-18.5669
-13.3626
-8.17447
-4.64237
-2.33488
-1.64271
-0.385085
13.7248
13.4357
13.4206
13.2136
12.5732
10.8834
6.47898
-5.16354
-28.0712
-40.0464
-45.3001
-36.6873
-24.0739
-18.0662
-13.2099
-8.67803
-5.314
-3.02426
-1.9024
-0.621986
13.0191
12.7529
12.5341
12.0426
10.9606
8.77093
3.90996
-5.57787
-23.819
-33.5745
-38.4489
-32.1978
-23.3092
-17.8192
-13.2515
-9.05623
-5.82138
-3.47293
-2.06966
-0.844418
12.3341
12.0731
11.6828
10.9473
9.54117
7.00812
2.1244
-6.24517
-20.5409
-28.9139
-33.0336
-29.2783
-22.228
-17.2556
-13.0448
-9.25651
-6.17423
-3.87928
-2.22901
-1.01887
11.6762
11.4124
10.8785
9.94392
8.29373
5.55627
0.758867
-6.56259
-17.9452
-25.1033
-28.8123
-26.2576
-21.0131
-16.7203
-12.8825
-9.43264
-6.45552
-4.20412
-2.3413
-1.15766
11.0574
10.7886
10.1372
9.04308
7.22225
4.37313
-0.229379
-6.72681
-15.9665
-22.1301
-25.4125
-23.9454
-19.9431
-16.2157
-12.6682
-9.50391
-6.62664
-4.45033
-2.42629
-1.2714
10.4874
10.2112
9.46569
8.24812
6.31144
3.41626
-0.964553
-6.789
-14.4317
-19.754
-22.7532
-21.8868
-18.8116
-15.6254
-12.4166
-9.53043
-6.75176
-4.6503
-2.49329
-1.36048
9.97565
9.68905
8.87073
7.55999
5.54946
2.64961
-1.50085
-6.77756
-13.2159
-17.9005
-20.6022
-20.2263
-17.8922
-15.1399
-12.2042
-9.5339
-6.82991
-4.79634
-2.53986
-1.43038
9.52659
9.22982
8.3563
6.97713
4.92312
2.04683
-1.88702
-6.72024
-12.2595
-16.4289
-18.8985
-18.8549
-17.0561
-14.6657
-11.9681
-9.48894
-6.86662
-4.90453
-2.57444
-1.48456
9.14566
8.8396
7.92506
6.49727
4.42352
1.58272
-2.16609
-6.6488
-11.5133
-15.3247
-17.5702
-17.7406
-16.3827
-14.2765
-11.7801
-9.45498
-6.89367
-4.98634
-2.59988
-1.5261
8.83593
8.52253
7.57853
6.11683
4.03546
1.23093
-2.36283
-6.59148
-10.9414
-14.4794
-16.5396
-16.8695
-15.8551
-13.9491
-11.6134
-9.40634
-6.89685
-5.03923
-2.6147
-1.55602
8.60083
8.28201
7.31765
5.83295
3.7459
0.970645
-2.50347
-6.5259
-10.5708
-13.8169
-15.7751
-16.2941
-15.4643
-13.706
-11.4905
-9.37186
-6.90094
-5.07953
-2.62721
-1.57861
8.44263
8.12005
7.14302
5.64457
3.55596
0.802893
-2.58771
-6.48198
-10.3127
-13.4433
-15.3583
-15.8074
-15.1894
-13.5323
-11.3993
-9.34172
-6.8957
-5.10051
-2.63195
-1.59185
8.36334
8.03844
7.05526
5.55006
3.46006
0.715703
-2.63475
-6.47598
-10.1755
-13.2638
-15.124
-15.5605
-15.0908
-13.4521
-11.3566
-9.32887
-6.89628
-5.11385
-2.63627
-1.60003
19.3447
15.5045
17.66
18.0166
19.9741
24.1245
16.9586
15.5263
16.8739
17.5109
19.2527
22.5891
27.0782
33.1102
-15.1624
-8.13829
-3.72479
0.0723733
1.11738
0.628823
15.7923
15.2515
15.9882
16.7902
17.9981
19.9211
20.3043
17.6916
-18.8348
-15.553
-7.90944
-3.52302
-0.762921
-0.107472
0.464246
15.1347
14.6999
15.1929
15.6425
16.1848
16.5
14.5457
7.51379
-32.3507
-52.8904
-24.612
-17.6452
-13.5144
-7.62139
-3.8697
-1.86866
-1.32526
-0.0327343
14.4255
14.0934
14.3079
14.4237
14.3021
13.4983
9.64985
-2.42829
-29.6412
-46.0009
-59.2977
-43.9415
-25.3353
-18.6275
-13.3549
-8.19546
-4.64474
-2.3352
-1.6415
-0.389115
13.7239
13.4326
13.4174
13.2093
12.5654
10.8723
6.45258
-5.18253
-28.1487
-40.0471
-45.2774
-36.663
-24.051
-18.0915
-13.202
-8.68612
-5.31548
-3.02925
-1.89976
-0.623908
13.0187
12.7506
12.532
12.0393
10.955
8.7633
3.8924
-5.59682
-23.8564
-33.5883
-38.4472
-32.1782
-23.2735
-17.8338
-13.2497
-9.06336
-5.82093
-3.47582
-2.06414
-0.844093
12.3336
12.0714
11.6812
10.9447
9.53721
7.00258
2.11212
-6.25801
-20.5629
-28.928
-33.0196
-29.295
-22.195
-17.265
-13.0415
-9.26023
-6.17346
-3.88275
-2.22534
-1.01832
11.676
11.4113
10.8776
9.94191
8.29064
5.55279
0.750431
-6.57234
-17.958
-25.1148
-28.8046
-26.2701
-20.9846
-16.7293
-12.8831
-9.43518
-6.45355
-4.20631
-2.33839
-1.15687
11.0571
10.7879
10.1367
9.04163
7.21999
4.37076
-0.235085
-6.73314
-15.9744
-22.1385
-25.4102
-23.9568
-19.927
-16.2219
-12.6668
-9.5053
-6.62541
-4.45191
-2.42417
-1.27058
10.4873
10.2107
9.46536
8.24707
6.30972
3.41433
-0.968512
-6.79344
-14.4369
-19.76
-22.752
-21.8924
-18.802
-15.6306
-12.4168
-9.53139
-6.75002
-4.651
-2.49187
-1.35987
9.97554
9.68876
8.87052
7.5592
5.54821
2.64828
-1.50378
-6.78089
-13.2196
-17.9044
-20.6031
-20.2292
-17.8864
-15.1437
-12.2048
-9.53435
-6.82841
-4.79682
-2.53888
-1.42973
9.52653
9.22959
8.35614
6.9765
4.92215
2.04571
-1.88905
-6.72241
-12.2617
-16.4314
-18.9
-18.8562
-17.0525
-14.6674
-11.9683
-9.48932
-6.8653
-4.90471
-2.57369
-1.48401
9.14554
8.83945
7.92496
6.49676
4.42285
1.582
-2.16743
-6.65036
-11.515
-15.3264
-17.5719
-17.7403
-16.3807
-14.2769
-11.7802
-9.45466
-6.89261
-4.98656
-2.59935
-1.5256
8.83586
8.5224
7.57846
6.11646
4.03499
1.2304
-2.36369
-6.59252
-10.9426
-14.4805
-16.541
-16.8692
-15.8542
-13.9468
-11.6136
-9.40589
-6.89603
-5.03932
-2.61427
-1.55554
8.60078
8.2819
7.31756
5.83266
3.74543
0.97015
-2.50415
-6.52667
-10.5717
-13.8176
-15.7761
-16.2938
-15.4642
-13.7036
-11.4912
-9.37125
-6.90032
-5.07975
-2.62699
-1.5782
8.44255
8.11996
7.14295
5.64435
3.55565
0.802533
-2.58824
-6.48261
-10.3134
-13.4438
-15.3593
-15.807
-15.1896
-13.5303
-11.4
-9.34087
-6.89514
-5.1008
-2.63187
-1.59145
8.36329
8.03838
7.0552
5.5499
3.45981
0.715366
-2.63531
-6.47661
-10.1761
-13.2643
-15.1248
-15.5603
-15.0912
-13.4514
-11.358
-9.32807
-6.89563
-5.11398
-2.63611
-1.59949
19.3405
15.4991
17.6629
18.0296
19.9595
24.1178
16.9539
15.5211
16.8714
17.5057
19.2423
22.5729
27.0728
33.2074
-15.0262
-8.16296
-3.72632
0.118633
1.1507
0.666713
15.79
15.2462
15.9842
16.7835
17.9882
19.9107
20.2961
17.7289
-18.7959
-15.4293
-7.94162
-3.54766
-0.770549
-0.0786307
0.468897
15.1329
14.6963
15.1898
15.6365
16.1742
16.4873
14.5199
7.52202
-32.3798
-52.6745
-24.9508
-17.6709
-13.4413
-7.64551
-3.88622
-1.88725
-1.32322
-0.0381235
14.4238
14.0906
14.305
14.4185
14.2933
13.4873
9.62183
-2.43649
-29.6933
-46.0106
-59.2335
-43.8992
-25.3436
-18.6764
-13.3278
-8.20817
-4.64782
-2.34544
-1.64088
-0.392857
13.7226
13.4305
13.4149
13.2049
12.5582
10.8633
6.43103
-5.18909
-28.2085
-40.0416
-45.2619
-36.6414
-24.0557
-18.119
-13.1882
-8.69079
-5.31947
-3.04074
-1.90087
-0.626724
13.0178
12.749
12.5302
12.0359
10.9495
8.75622
3.87593
-5.60881
-23.8871
-33.5976
-38.4474
-32.1687
-23.2515
-17.8531
-13.2482
-9.06838
-5.82375
-3.4838
-2.06327
-0.844842
12.333
12.0702
11.6799
10.942
9.53283
6.9969
2.10009
-6.26784
-20.5836
-28.9391
-33.0077
-29.3088
-22.1782
-17.2748
-13.0393
-9.26203
-6.17504
-3.89028
-2.22609
-1.01907
11.6757
11.4104
10.8765
9.93986
8.28717
5.54884
0.742061
-6.58121
-17.9711
-25.1247
-28.7993
-26.2795
-20.9674
-16.7343
-12.8839
-9.43706
-6.45401
-4.21192
-2.33893
-1.15704
11.0569
10.7871
10.1358
9.03997
7.21732
4.36798
-0.24112
-6.73976
-15.9829
-22.1463
-25.4073
-23.9683
-19.9153
-16.225
-12.6658
-9.50617
-6.62605
-4.45651
-2.4249
-1.27049
10.4869
10.2102
9.46467
8.24573
6.30762
3.41217
-0.972969
-6.79851
-14.4427
-19.7659
-22.7505
-21.8994
-18.7937
-15.6326
-12.4175
-9.53232
-6.75003
-4.65431
-2.4927
-1.35976
9.97532
9.68832
8.87
7.55816
5.54663
2.64669
-1.50714
-6.7847
-13.2237
-17.9085
-20.6035
-20.2337
-17.8815
-15.1452
-12.2053
-9.53481
-6.82843
-4.79954
-2.53971
-1.42945
9.52636
9.22925
8.35575
6.97568
4.92097
2.04436
-1.89148
-6.72503
-12.2644
-16.4344
-18.901
-18.8586
-17.0496
-14.6681
-11.9689
-9.49001
-6.86533
-4.90671
-2.57437
-1.48374
9.14538
8.83919
7.92467
6.49612
4.42202
1.58099
-2.16917
-6.65232
-11.5169
-15.3283
-17.5733
-17.7411
-16.3793
-14.2771
-11.781
-9.45498
-6.89263
-4.9881
-2.59991
-1.52534
8.83574
8.5222
7.57823
6.11598
4.03435
1.22964
-2.36491
-6.59389
-10.944
-14.4819
-16.5422
-16.8696
-15.8537
-13.9459
-11.6137
-9.40599
-6.89604
-5.0404
-2.61465
-1.55527
8.60068
8.28175
7.31738
5.83229
3.74488
0.969498
-2.50508
-6.52768
-10.5728
-13.8186
-15.777
-16.2939
-15.4642
-13.7028
-11.4917
-9.37113
-6.90033
-5.08058
-2.62728
-1.57793
8.44247
8.11984
7.14282
5.64406
3.55525
0.80206
-2.58892
-6.48336
-10.3143
-13.4446
-15.3602
-15.8069
-15.1899
-13.5295
-11.4008
-9.34056
-6.89509
-5.10138
-2.63207
-1.59116
8.36322
8.03828
7.0551
5.54967
3.45947
0.714959
-2.63589
-6.47725
-10.1769
-13.2648
-15.1255
-15.5602
-15.0915
-13.4499
-11.3583
-9.32773
-6.89552
-5.11427
-2.63616
-1.59915
19.3366
15.4948
17.6688
18.0346
19.9433
24.1044
16.9504
15.5173
16.8707
17.5002
19.2302
22.5562
27.0739
33.2888
-14.9005
-8.17675
-3.72065
0.149205
1.18209
0.694841
15.7879
15.2425
15.9819
16.7787
17.98
19.9061
20.3005
17.7711
-18.6544
-15.2597
-7.97196
-3.55645
-0.763977
-0.0485684
0.475493
15.1311
14.694
15.1883
15.6328
16.1671
16.4835
14.5127
7.54404
-32.3637
-52.4651
-25.4016
-17.6847
-13.3557
-7.66725
-3.89458
-1.88285
-1.30756
-0.0349531
14.4224
14.0887
14.3033
14.4152
14.2876
13.484
9.61187
-2.43073
-29.6963
-45.9835
-59.1957
-43.9032
-25.3787
-18.7016
-13.2909
-8.21419
-4.64603
-2.34572
-1.63128
-0.390188
13.7214
13.429
13.4135
13.2021
12.5534
10.8599
6.42035
-5.18511
-28.2425
-40.0398
-45.2558
-36.6351
-24.0707
-18.1322
-13.1665
-8.69056
-5.32042
-3.04714
-1.89645
-0.625238
13.0168
12.748
12.5291
12.0338
10.9457
8.75296
3.86597
-5.61271
-23.9047
-33.605
-38.4524
-32.1733
-23.2428
-17.8655
-13.2402
-9.06955
-5.82485
-3.48813
-2.0593
-0.842806
12.3323
12.0694
11.679
10.9404
9.52974
6.99359
2.09188
-6.27254
-20.5987
-28.9478
-33.0005
-29.3241
-22.1744
-17.2847
-13.0347
-9.26093
-6.17511
-3.89506
-2.22494
-1.01781
11.6753
11.4098
10.8758
9.93856
8.28467
5.54606
0.735782
-6.58682
-17.9816
-25.1325
-28.7975
-26.2895
-20.9595
-16.741
-12.8838
-9.43724
-6.45399
-4.21534
-2.33798
-1.15555
11.0568
10.7866
10.1352
9.03892
7.21536
4.36591
-0.245862
-6.74439
-15.9899
-22.1529
-25.4047
-23.9806
-19.9097
-16.2302
-12.6653
-9.50582
-6.62606
-4.45959
-2.42469
-1.26914
10.4868
10.2098
9.46419
8.24488
6.3061
3.41058
-0.976435
-6.80229
-14.4474
-19.771
-22.7489
-21.9073
-18.7887
-15.6354
-12.4183
-9.53255
-6.7498
-4.65648
-2.49273
-1.35855
9.97515
9.688
8.86965
7.5575
5.5455
2.64558
-1.50968
-6.78765
-13.2271
-17.9121
-20.6034
-20.2392
-17.8785
-15.1474
-12.2058
-9.53478
-6.82824
-4.80137
-2.53999
-1.42835
9.5262
9.22899
8.35546
6.97515
4.92011
2.04343
-1.89333
-6.72713
-12.2667
-16.437
-18.9013
-18.8618
-17.0478
-14.6692
-11.9694
-9.49025
-6.86521
-4.90793
-2.57463
-1.48286
9.14524
8.83898
7.92446
6.49568
4.42141
1.58029
-2.17055
-6.65396
-11.5187
-15.3302
-17.5742
-17.7427
-16.3786
-14.2777
-11.7819
-9.45512
-6.89257
-4.98899
-2.60017
-1.52462
8.83563
8.52203
7.57806
6.11564
4.03389
1.22907
-2.36592
-6.59507
-10.9453
-14.4832
-16.543
-16.8706
-15.8537
-13.9461
-11.6144
-9.4061
-6.89609
-5.04104
-2.61484
-1.55467
8.60058
8.28161
7.31723
5.83201
3.74447
0.96898
-2.50592
-6.52862
-10.5737
-13.8196
-15.7777
-16.2943
-15.4644
-13.7031
-11.4926
-9.37128
-6.90047
-5.08108
-2.62747
-1.57747
8.44237
8.11971
7.14268
5.6438
3.5549
0.801635
-2.58959
-6.4841
-10.3151
-13.4453
-15.361
-15.807
-15.1903
-13.5294
-11.4018
-9.34069
-6.89523
-5.10176
-2.63222
-1.59082
8.36314
8.03816
7.05497
5.54944
3.45914
0.714546
-2.6365
-6.47792
-10.1776
-13.2655
-15.1262
-15.5604
-15.0919
-13.449
-11.3585
-9.32773
-6.8957
-5.11452
-2.63621
-1.59887
19.3331
15.4908
17.6756
18.0323
19.9314
24.0878
16.9468
15.5145
16.8705
17.4945
19.2183
22.5404
27.0754
33.3599
-14.7968
-8.18017
-3.71218
0.166406
1.21477
0.704953
15.7859
15.2392
15.9799
16.7741
17.972
19.9007
20.3007
17.8073
-18.4923
-15.0871
-7.99561
-3.55944
-0.749109
-0.0195842
0.476595
15.1293
14.6919
15.1868
15.6297
16.1611
16.48
14.5101
7.56459
-32.2949
-52.314
-25.7564
-17.7039
-13.2768
-7.68497
-3.8989
-1.86642
-1.2904
-0.0315424
14.4211
14.0868
14.3015
14.4125
14.283
13.4815
9.6085
-2.41992
-29.6719
-45.9392
-59.1857
-43.9046
-25.3989
-18.7193
-13.2615
-8.21746
-4.64119
-2.33966
-1.61913
-0.386658
13.7206
13.4275
13.412
13.1999
12.5495
10.8575
6.41451
-5.17877
-28.2502
-40.0414
-45.2573
-36.6376
-24.0825
-18.1398
-13.1458
-8.68897
-5.3195
-3.04705
-1.88853
-0.622748
13.0158
12.7469
12.528
12.0321
10.9426
8.75069
3.86008
-5.61273
-23.9112
-33.6097
-38.4588
-32.1851
-23.2401
-17.8737
-13.2304
-9.06971
-5.82436
-3.48769
-2.05264
-0.840084
12.3317
12.0685
11.678
10.939
9.52732
6.99134
2.08668
-6.27393
-20.6071
-28.9535
-32.9958
-29.3379
-22.1746
-17.2917
-13.029
-9.25859
-6.17381
-3.89633
-2.22158
-1.01582
11.6747
11.4092
10.8751
9.93755
8.28273
5.5441
0.731564
-6.58961
-17.9878
-25.1377
-28.7973
-26.2997
-20.9544
-16.7455
-12.8824
-9.43679
-6.45338
-4.21615
-2.33503
-1.15351
11.0563
10.7862
10.1347
9.03813
7.21389
4.36438
-0.24916
-6.74696
-15.9945
-22.1578
-25.402
-23.9928
-19.906
-16.2345
-12.6643
-9.50479
-6.6254
-4.46065
-2.42306
-1.26744
10.4865
10.2094
9.46381
8.24426
6.30495
3.40935
-0.978895
-6.80465
-14.4507
-19.7749
-22.7472
-21.9153
-18.785
-15.6378
-12.4185
-9.53236
-6.74931
-4.65711
-2.49159
-1.35709
9.97495
9.68772
8.86936
7.55702
5.54466
2.64472
-1.51148
-6.78959
-13.2295
-17.9149
-20.6026
-20.2453
-17.876
-15.1494
-12.2062
-9.53439
-6.82775
-4.80192
-2.53935
-1.42711
9.52603
9.22876
8.35524
6.97476
4.91946
2.04272
-1.89466
-6.72857
-12.2683
-16.4391
-18.9011
-18.8657
-17.046
-14.6703
-11.9696
-9.49017
-6.86497
-4.90824
-2.57416
-1.48186
9.14508
8.8388
7.92429
6.49537
4.42095
1.57976
-2.17156
-6.65513
-11.52
-15.3317
-17.5745
-17.7449
-16.3778
-14.2783
-11.7824
-9.45507
-6.89243
-4.98926
-2.5999
-1.52382
8.83551
8.52187
7.57791
6.11538
4.03354
1.22865
-2.36667
-6.59594
-10.9463
-14.4842
-16.5434
-16.872
-15.8534
-13.9462
-11.6148
-9.40608
-6.89607
-5.04119
-2.61462
-1.55405
8.60048
8.28148
7.31711
5.8318
3.74415
0.968594
-2.50656
-6.52934
-10.5745
-13.8204
-15.7782
-16.2951
-15.4645
-13.703
-11.4932
-9.37138
-6.90055
-5.08122
-2.62732
-1.57699
8.44228
8.11959
7.14257
5.6436
3.55462
0.801297
-2.59011
-6.4847
-10.3157
-13.4459
-15.3616
-15.8075
-15.1905
-13.5293
-11.4024
-9.34085
-6.89536
-5.10187
-2.63211
-1.59046
8.36305
8.03805
7.05486
5.54925
3.45885
0.714194
-2.63703
-6.47849
-10.1782
-13.266
-15.1268
-15.5608
-15.0921
-13.4486
-11.3586
-9.32785
-6.8959
-5.11459
-2.63609
-1.59856
19.3301
15.4871
17.6811
18.0263
19.9196
24.0737
16.9439
15.5123
16.8699
17.4889
19.2079
22.5261
27.073
33.4098
-14.7201
-8.17203
-3.70405
0.172947
1.25354
0.706483
15.7841
15.2362
15.9776
16.7694
17.9641
19.8937
20.2957
17.8293
-18.4193
-14.9509
-8.00358
-3.56051
-0.74295
0.00782502
0.472974
15.1277
14.6899
15.1852
15.6265
16.1555
16.4755
14.5055
7.5809
-32.2128
-52.1893
-26.0257
-17.7244
-13.2148
-7.69323
-3.90291
-1.85174
-1.27459
-0.0305249
14.4198
14.0849
14.2996
14.4097
14.2785
13.478
9.60596
-2.4081
-29.6396
-45.8914
-59.1956
-43.8969
-25.4014
-18.7372
-13.2429
-8.21686
-4.63643
-2.33352
-1.60913
-0.384973
13.7197
13.4261
13.4105
13.1978
12.5459
10.8547
6.4108
-5.17415
-28.2381
-40.0421
-45.2651
-36.6442
-24.0913
-18.1471
-13.1294
-8.68606
-5.31922
-3.04431
-1.88044
-0.621282