/*--------------------------------*- C++ -*----------------------------------*\
  =========                 |
  \\      /  F ield         | OpenFOAM: The Open Source CFD Toolbox
   \\    /   O peration     | Website:  https://openfoam.org
    \\  /    A nd           | Version:  10
     \\/     M anipulation  |
\*---------------------------------------------------------------------------*/
FoamFile
{
    format      ascii;
    class       surfaceScalarField;
    location    "2000";
    object      phi;
}
// * * * * * * * * * * * * * * * * * * * * * * * * * * * * * * * * * * * * * //

dimensions      [0 3 -1 0 0 0 0];

internalField   nonuniform List<scalar> 
164653
(
-1.88482
19.827
98.4631
1.85235
0.379099
-19.5795
19.4921
94.2543
-0.234443
0.316112
-0.145987
-0.243476
0.279778
-19.3878
19.1993
94.888
-0.0585272
0.367216
-0.177971
-0.139231
-0.452708
-5.01113
5.05741
24.7184
0.539009
-0.067568
-4.38353
4.21806
21.6007
0.126288
-1.29256
3.27142
-0.0196872
18.2811
-0.0415244
-10.7412
80.8858
10.5509
404.71
16.0448
-80.7494
80.2944
-15.531
399.954
11.4146
-79.6001
79.5044
-10.8235
397.432
-2.43103
-79.6675
79.0135
9.17806
400.759
-2.32138
-1.51222
-2.35707
-2.40007
-78.2698
77.1708
13.0193
399.681
-2.64844
-3.86398
-4.0902
-3.41439
-75.3063
72.2212
19.6782
392.222
-3.80331
-4.1307
-4.79612
-11.5622
64.498
379.245
-7.40743
-15.5306
-9.1915
-63.2471
15.8893
15.7185
16.1506
16.2746
-2.87894
-14.022
16.3612
96.165
-4.50339
-4.57593
-6.61727
3.06742
4.55065
4.81098
3.4702
-0.304611
0.468473
5.41069
0.118469
-1.41857
-0.949181
59.5618
0.126503
1.80881
0.103605
-1.91059
2.00157
0.155498
0.180685
0.111509
0.220544
-0.839761
4.24118
73.5377
-1.69015
0.171046
0.216719
0.215156
-0.83102
-0.861721
-0.874614
0.454072
-6.54438
7.45528
76.2771
-0.885453
0.404309
-0.225767
-0.369757
0.215724
-9.52085
9.92868
77.6112
-0.975707
0.294919
0.0676717
0.0365461
0.979319
-12.1887
12.5336
82.965
-1.14977
332.061
-28.3111
1662.28
-10.5968
7.12729
13.7104
33.307
328.464
-71.913
1648.73
15.0658
16.2584
25.1907
23.2365
329.335
-35.7957
1641.21
10.2482
-2.01465
19.0862
14.5098
325.885
5.24209
1649.62
-9.46931
-11.2012
13.1284
7.44504
320.44
13.8694
1653.13
-13.8128
-15.8526
4.86411
11.4805
298.433
101.371
1626.48
-21.9568
-55.9533
-4.42309
-35.2267
71.9654
182.559
1641.63
75.4251
65.8907
68.1515
-67.6592
-49.4707
-42.8544
-73.4705
-20.1059
82.3857
402.927
18.189
18.4121
15.9882
19.3375
-20.519
-22.8508
-28.4796
-0.264604
-0.244054
5.14343
0.425794
3.6968
-46.4481
56.6849
-30.447
314.447
4.00399
4.76023
7.33307
4.42307
-61.9206
66.5382
-21.2886
342.603
3.36627
4.23141
3.11565
13.6238
-70.163
72.8222
-17.6525
360.05
-6.82135
-73.1964
80.0254
19.1128
359.234
11.5858
-81.5814
82.7647
-12.8464
388.484
-5.61231
-84.6196
84.6676
5.20395
391.028
336.862
-26.8333
1683.65
334.848
-66.483
1684.42
334.487
-31.6868
1680.13
332.824
8.13483
1683.31
332.855
31.7542
1679.89
328.549
120.954
1682.73
91.6501
158.131
1707.37
94.6377
74.6819
86.6213
-52.4686
84.7962
49.511
406.155
-28.2932
-23.7283
25.7784
96.7271
26.5756
-8.68042
6.7006
1.98515
22.9662
0.0407393
1.07185
-4.95295
21.6982
-6.04269
82.5094
1.57056
1.05829
1.53634
-4.95217
-5.32653
-5.46691
4.06446
-22.7782
96.7679
-3.99469
361.127
-4.83942
0.770257
0.380525
-24.6144
-23.2955
-25.4642
382.215
-151.739
1543.55
32.851
29.1689
42.7522
49.8169
-84.8246
-97.7667
-84.3196
-98.1051
374.059
-131.716
1634.92
22.1459
20.413
46.4878
40.3885
379.023
-29.1484
1605.99
18.2333
-11.7469
33.0093
10.881
366.359
-17.1184
1668.45
-33.08
-4.67306
15.0738
22.3047
369.654
7.58845
1605.51
13.6294
2.3995
20.6676
-4.24783
46.7477
1654.27
-4.98118
4.54065
-19.2483
-26.9017
341.882
-25.2264
1708.87
340.624
-61.3217
1711.03
340.948
-27.9028
1707.58
340.563
10.3437
1709.94
340.182
33.2133
1706.46
344.691
116.082
1711.6
363.37
137.383
1683.54
93.4731
227.524
1691.32
-61.8979
-100.702
-65.2065
-57.302
93.5798
111.436
110.778
-117.876
104.244
110.915
413.818
-8.97416
115.339
32.7707
403.349
-8.50286
-9.48556
-8.61116
-113.515
-4.58749
-30.0259
30.6411
101.615
3.85192
1.87634
-115.285
112.897
14.1784
413.904
0.855716
-10.9493
-14.7271
20.2557
-106.808
104.23
-18.1048
403.266
403.247
-79.7699
1640.07
4.90516
22.3975
6.85741
19.6765
-96.9977
-98.202
-106.709
-102.149
394.44
-129.123
1666.19
383.095
-102.514
1667.87
372.176
-62.2468
1673.52
376.702
-72.3891
1686.79
379.057
6.18778
1687.24
42.9669
1693.31
346.16
-23.5258
1730.4
345.448
-56.2808
1733
346.434
-24.4914
1730.1
347.29
11.6931
1732.15
349.02
32.9963
1728.79
356.792
108.493
1734.12
375.179
118.224
1710.78
422.767
176.977
1710.64
447.985
128.456
1713.22
-102.369
-56.9236
-10.5308
4.12854
115.148
60.3979
1659.78
-30.7998
-24.7129
-2.77154
-0.671424
114.788
116.227
115.38
-1.98256
115.818
-0.0401388
420.967
436.052
-36.8117
1727.08
-16.3817
-2.19375
8.91799
17.3084
-114.137
-113.674
-113.354
-112.589
437.507
7.76373
1692.52
16.0667
7.03461
-19.0319
-9.70313
410.998
-12.4931
1690.54
397.997
-118.205
1703.38
390.364
-94.1672
1699.11
388.214
-57.4319
1704.1
382.341
-68.0239
1716.28
383.87
5.44218
1717.15
7.24586
1723.06
349.855
-21.769
1749.07
349.568
-51.4239
1751.74
351.155
-21.557
1749.21
357.739
32.6509
1751.15
356.152
62.2067
1747.2
367.423
136.889
1754.11
383.311
161.501
1735.62
410.864
151.616
1739.35
438.759
104.65
1725.45
454.945
45.8929
1707.63
447.588
-15.6283
1700.4
0.977374
4.52684
21.0749
21.2188
437.965
-23.4833
1707.54
431.672
14.8612
1710.97
418.402
-81.2635
1794.84
401.319
-151.32
1779.9
393.967
-85.2363
1724.48
391.612
-52.1655
1729.2
385.292
-63.0638
1740.4
386.406
4.83706
1741.37
28.7814
1747.31
353.113
-19.9207
1765.46
353.172
-46.6213
1768.01
355.248
-18.9391
1765.77
356.638
30.869
1767.66
365.059
71.6173
1763.05
380.908
65.6412
1822.17
385.289
89.6389
1831.15
410.239
126.344
1756.54
433.681
85.5261
1749.76
445.51
36.1504
1736.53
441.342
-11.7624
1743.67
436.658
-15.209
1735.89
429.19
19.8929
1738.51
408.036
-42.9774
1767.05
403.226
-90.9266
1730.63
396.624
-76.5039
1746.83
394.28
-46.9753
1750.97
387.802
-57.7922
1760.99
388.368
4.3634
1762.09
25.9586
1767.88
361.928
6.59686
1780.11
362.763
20.3084
1782.44
363.337
39.9648
1780.53
360.85
56.7855
1782.38
365.353
64.9622
1777.71
383.475
58.7821
1753.15
389.621
94.524
1790.5
411.144
151.98
1774.55
429.307
100.18
1770.14
439.642
28.2774
1759.77
436.899
-9.06986
1767.09
430.384
20.9991
1733.39
427.739
40.8609
1740.02
405.914
-35.7143
1784.65
409.321
-66.7892
1751.9
398.696
-46.8868
1766
396.4
-41.8019
1769.88
389.778
-52.2861
1778.91
395.924
23.2938
1779.92
53.3303
1785.41
357.565
5.91932
1793.36
358.749
18.4369
1795.5
361.074
36.1832
1793.89
364.477
51.1439
1795.73
369.411
57.9719
1791.43
387.559
50.6969
1770.32
382.53
81.1215
1805.98
400.899
129.933
1791.64
425.714
84.6811
1787.22
434.723
21.9417
1778.64
433.441
-7.43534
1785.54
436.02
20.3965
1777.59
426.835
37.4959
1788.08
406.925
-29.3495
1800.31
406.669
-57.804
1770.38
400.235
-40.7618
1782.53
398.033
-36.7353
1786.26
391.307
-46.653
1794.54
391.554
20.9037
1795.35
47.5544
1800.6
359.996
5.22522
1805.47
361.322
16.398
1807.4
363.926
32.0886
1806.14
367.641
45.1866
1808
372.821
50.7638
1804.37
379.453
80.7177
1767.23
385.88
100.562
1786.94
407.212
92.325
1820.91
426.264
73.964
1816.19
433.078
49.958
1794.58
430.309
8.55938
1801.04
433.558
20.2913
1795.05
425.797
35.8237
1804.69
408.821
-24.4903
1814.04
407.583
-49.7206
1788.37
406.816
-20.4593
1797.2
399.507
-8.92627
1801.14
392.752
-40.9216
1808.61
392.299
18.4677
1809.36
41.7712
1814.28
362.257
4.5297
1816.65
363.689
14.271
1818.39
366.499
27.8277
1817.45
370.433
39.0052
1819.36
375.681
43.4758
1816.16
378.646
68.7734
1813.9
388.616
85.323
1819.3
406.543
76.4725
1817.44
417.797
61.153
1812.28
426.257
41.3618
1808.45
429.174
11.3788
1814.55
432.719
29.6015
1810.37
424.742
40.0487
1819.39
405.547
26.3267
1782.99
408.223
-12.6687
1771.28
404.044
-16.8999
1809.78
400.747
-7.27363
1814.67
394.007
-35.1127
1821.37
392.988
16.0187
1822.04
35.9488
1826.67
364.344
3.78815
1827.08
365.862
12.0026
1828.63
368.84
23.3856
1828.04
372.907
32.6466
1829.9
378.008
36.1843
1826.1
381.701
56.8289
1826.09
390.96
70.2258
1830.25
406.555
61.9384
1829.28
415.489
44.8919
1823.27
424.111
26.4074
1821.41
426.077
9.60078
1826.66
429.324
25.6985
1824.06
423.817
34.8925
1832.67
419.34
23.2528
1833.22
409.475
-6.17709
1830.86
404.87
-11.8586
1816.7
401.89
-5.79591
1826.75
395.198
-29.2665
1833.15
393.66
13.5242
1833.73
30.1143
1838.08
366.309
3.04693
1836.87
367.875
9.69361
1838.21
370.987
18.8452
1837.96
375.073
26.2382
1839.57
375.355
35.2498
1824.85
384.264
43.3951
1827.02
393.176
55.4554
1840.94
406.76
48.4767
1839.82
416.611
34.8166
1834.28
422.668
20.5766
1833.24
424.801
7.81958
1837.5
431.932
-7.63562
1861.22
423.401
10.8782
1866.88
419.241
19.4209
1845.14
411.823
-3.84059
1847.56
405.805
-9.15029
1829.18
403.008
-4.46768
1838.13
396.435
-23.4324
1844.04
394.308
10.9338
1844.59
24.2255
1848.73
368.144
2.2932
1846.1
369.756
7.32312
1847.23
372.96
14.2052
1847.32
377.072
19.7206
1848.84
381.787
23.8945
1848.3
386.883
28.3886
1851.34
395.375
41.3055
1851.29
407.391
35.6736
1849.61
416.239
25.5975
1844.69
422.025
14.9609
1844.1
424.622
5.69626
1847.42
423.35
-5.26649
1844.72
423.239
8.62374
1848.03
419.412
15.0818
1856.18
412.186
-2.73144
1858.67
406.837
-6.73789
1840.9
404.147
-3.21471
1849.24
397.639
-17.5688
1854.29
394.996
8.31566
1854.64
18.2902
1858.68
369.889
1.5561
1854.84
371.531
4.90818
1855.79
374.807
9.49691
1856.27
379.002
13.1789
1857.9
385.741
19.8453
1858.21
389.525
24.9262
1861.24
397.655
27.4414
1860.72
408.076
23.5301
1858.72
416.339
16.8212
1854.5
421.624
9.8806
1854.05
424.279
3.70199
1856.51
423.624
-3.45391
1854.77
423.414
5.98455
1858.92
419.737
10.3403
1866.42
410.132
-7.70968
1867
407.868
-13.0603
1852.6
405.39
-2.05878
1859.8
398.953
-11.7154
1863.99
395.861
5.61022
1864.16
12.2527
1868.14
371.544
0.778707
1863.2
373.189
2.46908
1863.91
376.522
4.76052
1864.72
380.794
6.59845
1866.52
385.494
9.95258
1867.56
392.129
12.5373
1869.9
400.024
13.7048
1869.56
409.07
11.7733
1867.34
416.923
8.25825
1863.76
422.117
4.90487
1863.4
424.595
1.90476
1865.04
424.195
-1.80318
1864.2
423.822
3.0923
1869.1
420.224
5.28145
1876.05
412.459
-5.35225
1874.45
408.926
-7.47763
1863.47
406.671
-1.01931
1869.88
400.365
-5.88148
1873.22
396.703
2.80996
1873.33
6.14551
1877.18
373.11
1871.13
374.756
1871.6
378.127
1872.74
382.455
1874.62
387.97
1876.34
394.721
1878.1
402.43
1877.75
410.519
1875.19
417.916
1872.22
423.037
1871.91
425.648
1872.69
425.168
1872.77
424.624
1878.41
421.05
1884.67
413.468
1878.75
410.107
1869.56
407.947
1878.51
401.689
1880.87
397.497
1880.84
1884.43
-98.1139
0.270994
19.7815
-0.243762
97.9287
-95.7335
3.03168
-19.773
19.7004
-2.8406
95.615
-96.5339
2.23869
-19.6733
19.6419
-2.30327
96.6299
-88.7373
10.7789
-18.3258
17.5591
-9.43924
88.1643
-90.0029
-17.846
16.7604
-2.8383
86.413
7.5138
-74.9322
-14.7299
13.6069
-3.91082
75.6329
4.33307
3.59782
-404.362
80.9181
-3.46803
404.176
5.94974
-400.004
80.1385
-5.41062
399.979
-80.6527
5.80234
-396.11
-79.4667
79.0204
-4.38403
395.138
14.6567
-399.143
-78.8348
79.2556
-13.2803
397.346
10.9989
-406.368
-80.3296
79.0162
-11.6254
408.307
4.91423
-394.873
-75.9982
73.0169
-0.475338
393.416
-387.326
13.5023
68.4766
-36.289
385.001
12.7269
8.78149
8.34292
-73.2159
-96.9749
4.37573
-17.5756
17.2687
-4.05017
96.9563
-27.6647
-2.09994
-2.20958
27.5687
4.40546
-58.8231
0.23117
0.408743
-4.52751
58.5652
4.14549
-67.914
6.18749
-2.94306
4.08263
-6.7687
67.3556
-77.2035
0.644876
-6.17282
33.9407
-4.90995
304.787
1.89439
1.02982
1.71249
-8.25375
-6.01394
-8.1365
-74.4165
-80.4115
-78.491
-79.4524
5.27525
-9.39816
10.4779
-5.84391
78.9414
-336.064
19.8873
-47.2015
51.7986
-73.3479
336.613
17.1833
15.3239
15.8073
329.056
-1.35787
1654.79
3.09849
8.50728
-0.867503
-0.827169
326.686
-1.51768
1649.7
5.02929
3.34088
-2.27134
-3.18246
324.823
-1.63928
1641.35
3.54501
8.57178
-4.4434
-4.31704
323.152
-13.5426
1650.97
12.4759
11.812
-4.76592
-5.6532
315.711
13.4659
1652.28
10.8421
4.23596
-8.25445
-12.0017
316.025
11.3198
1626.49
-2.47667
16.114
-15.4347
-9.84166
90.3094
5.28455
1596.74
95.4467
94.0143
84.1517
30.4485
-26.0492
-12.7009
0.0140992
-414.75
-41.178
22.6424
429.566
26.0302
22.0596
22.2816
23.6573
-26.059
-1.04859
-7.53521
29.9154
4.72742
34.4991
-45.9473
-322.626
58.9892
-46.3635
321.449
30.0574
-348.466
-65.1345
69.0902
-36.2649
350.718
30.5366
-362.911
-71.4101
73.7169
-34.5379
364.605
82.4569
-175.757
1577.47
9.64674
25.2019
52.1697
50.773
-380.037
-385.2
-393.195
-390.621
-76.7472
-86.0977
-75.9335
-85.1607
84.161
82.7089
84.1641
35.2494
-388.56
82.35
-36.2901
389.707
-223.288
1560.89
76.4111
57.5169
40.3559
51.1973
-392.087
-392.879
-395.408
-395.242
-80.2926
-82.4407
-82.187
-84.7606
335.815
-1.24447
1683.34
334.452
0.422473
1683.85
334.056
0.762706
1678.13
333.007
-10.044
1680.86
329.216
17.9288
1679.21
343.213
15.7077
1664.35
101.054
30.2019
1638.84
104.794
89.4164
91.5545
-400.243
-18.1116
97.2227
13.9672
408.219
-95.1152
-17.7084
-25.4257
29.7608
10.6839
97.8046
-81.7047
-27.6521
22.9881
-1.72395
81.1145
6.97811
-77.8748
0.387321
-5.09447
21.3188
-0.597329
77.1944
0.321961
-0.635705
-1.25182
-5.10182
-4.41192
-4.25455
358.967
-254.86
1553.96
-80.6487
-98.4816
-76.1722
-85.1971
64.0223
71.1037
44.4343
40.9418
-376.706
-371.618
-393.521
-396.223
379.553
-212.134
1595.8
47.8805
32.7812
33.315
25.3159
370.194
-117.886
1634
36.874
41.1549
24.7897
25.3482
375.692
-113.562
1613.88
35.3198
9.07566
23.8857
31.8918
368.95
-147.555
1646.99
353.434
-173.2
1639.8
37.4416
54.4006
34.5144
28.0621
-222.717
1640.95
340.81
-1.14636
1708.36
340.197
1.70168
1710.37
340.448
2.61995
1705.47
340.515
-6.93866
1706.76
340.182
20.0019
1704.72
358.46
16.4265
1692.6
384.921
15.9908
1671.29
110.634
113.601
1699.87
-30.5697
-29.0184
-49.1213
-56.7161
109.739
104.102
103.722
-23.0231
115.691
15.1214
422.344
-419.499
-403.824
-7.88435
-115.332
114.875
8.56154
403.604
-397.364
7.5463
116.439
-17.9122
393.771
8.23146
2.73477
3.45552
-116.902
7.99699
-114.653
-400.421
112.637
-7.56604
391.948
3.1123
6.11561
0.830497
390.084
-87.8083
1592.3
10.39
23.6379
48.2856
85.4577
-109.197
-109.461
-106.574
-106.738
-405.005
-406.963
-409.236
-409.176
374.954
-160.608
1560.95
392.157
-184.834
1621.69
382.291
-110.893
1670.74
379.116
-108.368
1671.5
376.85
-141.991
1683.5
368.327
-165.519
1688.08
-212.18
1677.5
345.088
-1.07792
1729.83
344.984
2.48819
1732.32
345.884
3.89748
1727.93
347.126
-4.66864
1728.64
349.116
20.4133
1726.39
371.194
16.0152
1712.45
396.066
3.77187
1698.12
424.261
83.7622
1712.28
442.167
67.5414
1706.68
-8.66923
2.07741
-43.0281
-29.2876
455.938
39.2944
1666.71
-8.10287
-5.85372
-25.0652
-20.9757
446.876
-27.847
1674.08
17.2307
19.2453
-2.03084
7.01957
-421.445
-417.885
-421.679
-417.622
437.073
-61.1955
1704
4.5206
18.2442
20.9723
50.3464
421.63
-56.4267
1676.58
385.807
-148.66
1714.41
398.145
-171.237
1677.44
389.045
-102.637
1699.95
385.487
-101.177
1700.47
382.283
-133.759
1711.25
373.624
-155.75
1716.04
-199.829
1706.48
348.799
-1.00278
1748.45
349.083
2.96662
1750.97
350.577
4.674
1746.94
352.761
-3.06783
1747.37
356.634
19.712
1744.02
385.245
15.732
1725.79
401.008
-5.11794
1728.75
427.222
60.0673
1736.84
438.454
47.9896
1733.77
451.586
28.6032
1705.19
442.909
-34.8951
1716.13
433.224
-49.2667
1705.3
424.904
-46.1958
1709.06
415.057
-89.3523
1745.38
401.166
-82.0883
1704.65
392.527
-93.5669
1724.04
388.933
-93.1436
1724.76
378.305
-86.0999
1703.37
376.693
-120.431
1707.66
-186.314
1730.35
352.078
-0.97546
1764.86
352.663
3.15659
1767.23
354.641
5.00088
1763.47
357.564
-2.05781
1763.72
362.535
18.2096
1759.58
398.203
65.5272
1736.7
401.902
68.9254
1753.4
424.962
41.2783
1752.27
433.413
33.1872
1756.11
444.691
20.2357
1733.62
438.843
-30.0472
1744.67
432.269
-39.543
1732.74
425.479
-36.9699
1736.07
411.713
-77.4616
1768.92
402.918
-71.7271
1729.07
395.105
-84.4681
1745.54
391.692
-84.9475
1746.19
388.338
-79.304
1757.55
379.343
-110.961
1761.62
-171.847
1750.76
355.009
-0.942048
1779.48
355.842
3.13113
1781.63
358.2
5.00165
1778.17
361.641
-1.42654
1778.31
367.034
16.3316
1774.19
375.004
57.4361
1753.27
403.426
56.4939
1774.51
422.717
27.4738
1769.06
429.022
22.0733
1774.95
438.89
13.6471
1756.49
434.485
-25.8801
1767.33
422.316
-50.1198
1756.14
425.321
-59.7175
1759.76
411.581
-66.9229
1787.86
404.454
-62.6254
1749.93
397.311
-75.3609
1764.03
393.872
-76.4452
1764.81
390.231
-72.0681
1775.32
381.515
-100.997
1778.67
-156.599
1768.27
357.662
-0.892205
1792.68
358.696
2.99427
1794.6
361.343
4.76835
1791.48
365.166
-1.09149
1791.57
370.762
14.2547
1787.91
378.796
49.3455
1770.38
404.502
46.529
1790.24
420.3
16.4805
1786.84
425.4
13.6781
1790.51
433.976
8.77485
1774.94
431.213
-22.6166
1785.04
425.558
-39.6116
1772.74
424.996
-48.8331
1777.75
411.905
-57.3292
1803.8
405.589
-54.3238
1768.39
398.999
-66.5003
1780.26
395.649
-67.9515
1781.11
391.815
-64.5552
1790.86
383.362
-90.6305
1793.44
-140.718
1783.57
360.074
-0.801553
1804.73
361.278
2.75554
1806.43
364.148
4.36188
1803.67
368.218
-0.90809
1803.75
373.906
12.1437
1800.79
381.58
20.5617
1788.34
404.775
6.18823
1804.09
418.366
18.2895
1805.51
422.353
24.3797
1801.5
430.131
5.12538
1790.45
428.353
-19.6591
1799.86
431.296
-73.9428
1826.44
424.283
-65.9249
1828.79
412.568
-48.9528
1817.37
406.671
-46.4818
1786.43
400.443
-57.8555
1794.78
397.278
-59.4585
1795.81
393.188
-56.8232
1804.97
385.085
-79.892
1806.73
-124.253
1797.36
362.303
-0.722594
1815.92
363.639
2.43424
1817.38
366.665
3.83057
1814.96
370.91
-0.839728
1815.04
376.63
10.0933
1812.49
393.687
15.9044
1801.5
404.324
2.71085
1812.14
409.783
11.9312
1818.34
419.9
18.0797
1808.46
427.04
2.61001
1803.82
426.131
-16.8512
1812.66
420.081
-62.87
1805.35
423.769
-55.5627
1805.34
396.997
-24.673
1785.48
407.047
-56.9067
1771.65
401.606
-49.3038
1806.67
398.738
-50.9161
1809
394.432
-48.9199
1817.78
386.74
-68.9427
1818.79
-107.368
1810.06
364.375
-0.608491
1826.31
365.816
2.06853
1827.55
368.952
3.25804
1825.48
373.353
-0.754943
1825.42
379.317
8.4223
1821.81
394.163
12.368
1814.78
404.196
0.639551
1822.29
408.776
7.67115
1828.95
418.321
13.0662
1818.74
424.694
0.92812
1816.72
424.402
-14.0973
1824.19
420.123
-52.1554
1817.63
423.338
-45.7113
1819.6
418.197
-19.6986
1833.38
404.795
-37.1423
1824.49
402.599
-36.8253
1806.41
400.052
-42.3684
1820.75
395.618
-40.9263
1829.59
388.371
-57.7903
1829.82
-90.1023
1821.78
366.321
-0.508016
1836.09
367.833
1.66902
1837.1
371.056
2.60972
1835.38
375.685
-0.631593
1834.82
381.262
0.341925
1827.36
394.95
-2.09649
1827.8
404.072
-0.420614
1832.88
408.499
4.78221
1838.28
417.271
9.14741
1829.42
423.045
-0.0105819
1828.4
423.22
-11.3024
1834.53
427.027
-23.7731
1829.03
423.162
-7.50507
1832.54
418.557
-15.198
1845.24
409.491
-29.7108
1849.19
403.8
-29.9812
1828.02
401.35
-33.9389
1832.15
396.727
-32.8536
1840.6
389.941
-46.439
1840.03
-72.5193
1832.72
368.155
-0.396769
1845.3
369.719
1.24907
1846.09
372.981
1.95269
1844.72
377.761
-0.522817
1843.95
388.203
0.494405
1837.7
395.706
-1.83193
1843.58
403.88
-0.942871
1843.64
408.688
2.66694
1846.91
416.601
6.20492
1839.72
422.181
-0.584922
1839.09
423.127
-8.71887
1843.89
421.952
-17.4415
1839.56
423.244
-5.30513
1844.54
419.033
-11.0696
1856.26
410.981
-22.9544
1859.97
405.133
-22.7549
1839.52
402.664
-25.4566
1843.22
397.924
-24.7034
1850.88
391.567
-34.9858
1849.55
-54.7092
1843.02
369.878
-0.278341
1854.03
371.486
0.836409
1854.6
374.758
1.32117
1853.62
379.407
-0.384002
1853.11
388.969
-0.409289
1849.55
395.857
-1.88169
1854.41
403.71
-1.01557
1852.94
408.905
1.35662
1854.83
416.421
3.78896
1849.4
421.561
-0.557478
1848.89
422.909
-5.97231
1852.42
422.348
-11.6201
1849.51
423.727
-3.36279
1855.6
419.805
-7.19597
1866.47
411.871
-16.6893
1868.67
406.555
-15.5291
1850.69
404.092
-16.9774
1853.79
399.234
-16.5094
1860.66
393.318
-23.4175
1858.51
-36.6456
1852.81
371.514
-0.14266
1862.38
373.149
0.39988
1862.71
376.41
0.639279
1862.14
380.891
-0.209275
1861.86
388.774
-0.35549
1859.62
395.8
-1.09819
1862.09
403.565
-0.659791
1861.44
409.442
0.62721
1862.19
416.729
1.71378
1858.54
421.82
-0.334052
1858.08
423.494
-2.96081
1860.36
423.113
-5.93995
1858.9
424.459
-1.64676
1866.04
420.75
-3.5648
1876.13
412.735
-11.5386
1877.32
408.012
-8.86963
1861.54
405.559
-8.50416
1863.86
400.583
-8.26379
1869.95
395.116
-11.7484
1867.13
-18.3927
1862.23
373.073
1870.31
374.72
1870.35
377.95
1870.15
382.313
1870.05
388.866
1869.43
395.774
1870.09
403.432
1869.43
410.42
1868.83
417.429
1866.92
422.518
1866.49
424.805
1867.45
424.336
1867.3
425.516
1875.59
421.905
1884.72
411.648
1877.47
409.593
1862.74
407.026
1872.58
401.907
1877.73
396.873
1874.12
1869.9
-97.786
-0.498075
19.7142
0.411663
97.7356
-95.5089
-0.143499
-19.68
19.6341
0.188104
95.5102
-96.7965
-0.462736
-19.6927
19.6998
0.411609
96.8406
-89.0366
-0.835885
-18.337
17.5161
1.51381
89.1796
-85.624
-18.5447
16.4498
2.11047
85.6303
-0.0218429
-76.2324
-14.7172
14.078
0.816345
76.2985
-0.243255
-1.27939
80.7486
1.52187
403.923
-404.086
-2.07973
-399.872
-80.5205
80.0579
2.65555
399.758
-3.84614
-394.658
-79.3495
78.6056
4.76397
394.484
-10.1991
-396.513
-78.0365
78.7426
9.85123
396.155
-11.1175
-408.519
-80.2419
78.8815
12.7515
408.245
-13.9144
-392.569
-75.6623
71.899
18.0733
392.173
-5.79561
-383.569
65.0973
32.6429
383.21
-6.55937
-7.71473
-8.21886
-69.0925
-98.159
-13.3534
-15.1889
15.7901
12.4627
98.4485
-27.2608
-1.68885
1.50792
27.2255
0.216247
-58.5634
-0.00669743
0.787209
-1.2712
58.5853
0.468745
-66.9233
0.832699
-3.4569
4.58442
-1.89987
66.8629
-308.632
13.7721
-6.50107
37.1872
-53.7936
309.782
14.465
8.82673
9.39093
-8.72557
-6.80939
-8.96212
-79.0595
4.23817
-10.0292
10.7052
-5.23782
79.3831
-337.814
3.63191
-52.7385
55.354
-17.1717
338.302
4.59751
2.7885
3.05063
329.653
8.04493
1654.71
-1.97978
-2.14357
-1.2385
-1.89251
327.125
15.873
1649.28
-3.01514
-3.36706
-2.88668
-3.65775
325.554
28.5134
1640.78
-5.29677
-7.50239
-5.69212
-7.87675
324.328
44.7018
1650.97
-9.93411
-11.9545
-10.2593
-11.3249
316.59
66.5839
1652.88
-14.3967
-16.1328
-13.5379
-15.3765
307.124
103.906
1626.18
-21.1117
-25.0241
-20.9211
-27.0772
75.4379
180.08
1591.76
79.3681
74.9251
78.7824
-36.4564
-47.9604
-40.237
-51.8454
-397.914
-73.1827
73.2784
395.689
20.1022
18.8773
19.8894
18.6978
-34.7519
-3.58135
35.1333
2.40011
0.799793
17.2454
-49.5389
-319.71
59.1826
-25.0091
317.83
17.1408
-350.924
-65.4479
70.0605
-21.4875
350.658
17.0584
-73.1665
-365.399
75.3448
-19.3336
365.496
83.2169
-141.188
1550.42
58.7395
52.6433
25.3229
23.7862
-77.1218
-85.9309
-78.0289
-86.7045
84.5711
83.2148
84.5277
26.7302
-389.635
82.8105
-26.389
389.7
-64.5899
1559.04
18.1869
21.7468
13.8233
12.2177
-82.9313
-85.5136
-82.9726
-85.7937
335.58
8.06554
1683.39
334.312
17.2455
1683.74
333.212
29.6599
1678.08
331.87
45.824
1681.08
328.494
69.45
1679.72
328.433
104.358
1663.96
84.3247
170.717
1636.39
86.3778
83.7049
85.8408
-69.0922
-409.605
88.035
64.7228
410.264
-98.7241
-25.8681
-24.4779
26.7027
23.9423
98.4251
-81.0674
-27.8005
22.94
5.05386
81.0811
-0.207047
0.518763
-5.09913
-83.3311
84.8803
22.1289
-6.30341
0.430161
0.937686
1.20209
-5.13094
-4.98872
-5.24455
390.277
-107.51
1547.68
-88.8038
-93.9906
-92.3161
-98.0217
28.2717
24.3307
20.1934
23.8518
381.367
-90.8585
1596.53
25.0796
23.0088
26.1593
24.796
375.358
-79.2895
1634.38
21.0486
19.735
22.7364
21.3974
365.734
-110.077
1637.27
18.8344
34.0611
19.6168
23.807
366.236
-138.041
1643.34
365.471
-85.2104
1651.86
27.5649
14.9691
16.6518
14.7312
-62.3263
1639.95
340.567
7.78493
1708.5
340.074
17.6838
1710.42
339.635
29.941
1705.63
339.306
45.8677
1707.05
339.35
68.8971
1705.23
343.689
100.213
1692.41
364.364
149.872
1671.46
102.672
209.955
1700.43
-62.4921
-66.7447
-59.8599
-66.8029
102.069
102.639
102.363
-66.7008
-422.73
110.514
58.998
422.591
-30.3373
-403.444
-114.048
113.636
30.8549
403.339
-2.4715
-392.996
116.367
8.05606
392.9
-1.22808
-3.41266
-2.01297
-115.202
5.44473
-115.522
-397.735
108.233
-27.105
403.386
9.98588
5.31183
8.00103
368.797
-174.132
1658.34
43.8573
58.2132
32.2239
35.6244
-106.652
-108.073
-107.462
-108.433
394.973
-202.689
1629.95
393.42
-103.744
1636.13
385.074
-72.5861
1672.39
377.965
-103.597
1672.13
376.752
-131.49
1678.16
373.402
-81.0903
1687.31
-59.7922
1676.7
344.851
7.33927
1730.02
344.878
17.4912
1732.48
345.096
29.4682
1728.18
345.918
44.7393
1728.95
348.165
66.2383
1726.8
355.52
93.7839
1711.53
374.701
130.254
1698.56
410.874
172.63
1713.44
440.993
148.657
1706.72
-52.0246
-37.8613
-51.3637
-37.5673
454.886
96.7414
1665.92
-30.0303
-24.7974
-29.6993
-25.3182
450.105
11.9423
1675.19
-6.99432
3.80107
-7.9755
2.89496
433.249
-25.8554
1666.67
23.5492
32.609
12.9986
10.8858
388.606
-156.29
1703.38
401.416
-187.457
1686.37
399.511
-93.6931
1669.3
391.573
-66.0087
1701.31
384.049
-96.2354
1700.63
381.96
-123.607
1705.46
378.222
-76.2511
1714.94
-56.89
1705.83
348.578
6.76779
1748.72
348.987
16.8246
1751.23
349.815
28.3323
1747.25
351.567
42.6601
1747.69
355.456
62.1198
1744.25
364.283
89.4583
1721.29
381.679
115.025
1726.58
410.154
144.024
1736.97
434.478
124.113
1733.99
448.413
82.812
1705.19
444.627
15.9048
1715.95
433.539
-15.5479
1706.08
388.179
-36.3229
1634.45
404.614
-109.257
1650.74
402.446
-84.151
1697.27
394.723
-59.2953
1725.05
387.279
-88.384
1724.35
377.45
-138.469
1728.06
380.92
-108.95
1736.89
-53.5894
1729.7
351.873
6.16125
1765.12
352.583
15.8525
1767.5
353.909
26.6866
1763.79
356.396
39.886
1764.01
361.17
57.1275
1759.8
370.59
80.5515
1736.19
385.444
97.5265
1756.05
409.207
119.477
1753.06
429.613
103.401
1756.41
441.77
70.423
1733.86
440.465
17.0331
1744.85
432.716
-8.31824
1733.26
425.712
-27.9497
1734.7
406.325
-96.5375
1775.59
404.288
-74.7068
1721.66
397.055
-52.8902
1746.37
390.004
-80.4862
1745.34
387.24
-127.471
1749.32
383.052
-100.268
1757.12
-49.8522
1750
354.807
5.53788
1779.72
355.754
14.6731
1781.86
357.499
24.6655
1778.45
360.528
36.585
1778.58
365.713
51.6272
1774.51
375.259
70.9805
1753.29
388.355
82.9915
1775.95
408.337
99.1001
1769.45
425.458
86.0005
1775.23
436.166
59.4368
1756.77
435.946
17.1035
1767.48
430.813
-3.34563
1756.3
425.423
-21.3779
1758.58
407.708
-84.6679
1793.7
405.927
-65.9713
1742.97
399.017
-46.678
1764.73
392.175
-72.3905
1763.56
388.988
-115.904
1766.94
384.737
-91.2152
1773.87
-45.7802
1767.43
357.457
4.89569
1792.92
358.6
13.2853
1794.85
360.67
22.329
1791.74
364.11
32.9219
1791.8
369.598
45.8723
1788.18
379.105
61.5605
1770.29
390.825
70.6847
1790.82
407.996
81.6656
1787.1
422.135
71.598
1790.77
431.434
49.8565
1775.22
432.374
15.9507
1785.25
432.414
-29.3876
1798.74
424.953
-35.4949
1799.33
408.63
-73.182
1808.64
406.871
-57.4699
1761.65
400.327
-40.7241
1780.85
393.916
-64.3201
1779.45
390.524
-103.956
1782.3
386.088
-81.8321
1788.49
-41.3974
1782.66
359.883
4.22837
1804.96
361.177
11.7719
1806.65
363.497
19.821
1803.86
367.221
29.0363
1803.91
372.893
39.9793
1801.01
382.514
52.3653
1787.91
392.929
60.3989
1803.96
407.67
66.7614
1805.68
419.539
59.5799
1801.65
427.749
41.4193
1790.68
429.209
14.3915
1799.96
435.909
-12.0179
1802.37
424.291
3.55704
1801.36
409.076
-62.2805
1821.69
407.58
-48.9457
1779.4
401.642
-35.0489
1795.04
395.504
-56.1966
1793.83
391.974
-91.6009
1796.15
387.315
-72.1655
1801.72
-36.7543
1796.36
362.121
3.61674
1816.07
363.542
10.1952
1817.53
366.045
17.1628
1815.11
369.968
24.9994
1815.16
375.701
34.1113
1812.62
384.16
43.7658
1801.64
394.219
50.1762
1812.31
406.72
54.0782
1818.52
417.504
48.6514
1808.61
424.828
33.9524
1803.96
426.681
12.5187
1812.68
424.724
-9.16794
1804.45
423.891
4.58151
1805.15
396.225
-81.3166
1832.18
407.793
-86.6973
1797.84
402.732
-29.6261
1806.31
396.871
-48.1223
1806.79
393.251
-79.0182
1808.81
388.406
-62.2514
1813.72
-31.8731
1808.95
364.207
2.99201
1826.43
365.714
8.56187
1827.68
368.356
14.4006
1825.6
372.411
20.8704
1825.49
378.102
28.4415
1821.79
386.011
35.738
1814.9
395.488
40.6216
1822.37
406.392
43.048
1829.08
416.156
38.7454
1818.88
422.687
27.2756
1816.86
424.758
10.5126
1824.13
423.316
-6.96309
1816.87
423.437
4.80561
1819.26
402.987
-67.6309
1840.15
404.023
-78.2011
1814.96
403.582
-35.1584
1812.39
398.165
-40.1195
1818.17
394.416
-66.2074
1820.53
389.465
-52.1608
1824.68
-26.813
1820.59
366.152
2.38166
1836.19
367.732
6.89063
1837.19
370.479
11.5827
1835.45
374.62
16.7378
1834.81
379.947
23.2777
1827.19
387.748
27.422
1828.31
396.699
31.5889
1832.96
406.437
33.2309
1838.36
415.293
29.8235
1829.49
421.267
21.2208
1828.48
423.463
8.49658
1834.35
422.365
-5.22132
1828.39
423.185
4.47051
1832.05
403.579
-15.1396
1812.36
406.567
-39.0101
1807.02
404.555
-28.5349
1823.41
399.509
-32.0661
1829.14
395.556
-53.1936
1831.53
390.517
-41.907
1834.81
-21.6049
1831.44
367.976
1.786
1845.37
369.619
5.18439
1846.15
372.428
8.71829
1844.77
376.653
12.5547
1843.91
382.849
17.5842
1837.2
389.649
20.1532
1844.04
397.887
23.2624
1843.73
406.944
24.1375
1846.95
414.902
21.8172
1839.76
420.654
15.4333
1839.13
423.171
6.21099
1843.66
421.974
-3.42671
1838.96
423.266
3.74532
1843.97
419.056
-11.0509
1856.38
408.181
-31.0642
1862.9
405.564
-21.9049
1835.5
400.936
-24.0673
1839.85
396.866
-40.0606
1841.81
391.629
-31.5628
1844.44
-16.2936
1841.67
369.713
1.16512
1854.12
371.383
3.45944
1854.65
374.243
5.80556
1853.68
378.469
8.35531
1853.08
384.848
11.4763
1849.28
391.243
13.4999
1854.67
399.144
15.3173
1852.98
407.5
15.7723
1854.84
415.03
14.2648
1849.43
420.279
10.1946
1848.88
422.707
4.03536
1852.17
422.171
-2.24302
1848.86
423.745
2.68213
1855.09
419.818
-7.21295
1866.56
409.762
-23.8002
1871.46
406.725
-15.3106
1847.13
402.352
-16.0431
1850.14
398.293
-26.8046
1851.46
392.913
-21.1022
1853.43
-10.8938
1851.46
371.364
0.579076
1862.41
373.054
1.72312
1862.76
375.937
2.90073
1862.16
380.145
4.16449
1861.84
385.997
5.64128
1859.61
392.695
6.72942
1862.16
400.443
7.58213
1861.43
408.367
7.86054
1862.18
415.655
6.97663
1858.54
420.797
5.06144
1858.07
423.097
2.06542
1860.03
422.808
-1.18877
1858.14
424.477
1.42415
1865.63
420.763
-3.56285
1876.19
411.441
-17.5521
1880.39
407.988
-8.74489
1858.42
403.871
-8.04713
1859.98
399.631
-13.4669
1860.86
394.25
-10.6064
1862.02
-5.48827
1860.94
372.926
1870.34
374.611
1870.39
377.513