/*--------------------------------*- C++ -*----------------------------------*\
  =========                 |
  \\      /  F ield         | OpenFOAM: The Open Source CFD Toolbox
   \\    /   O peration     | Website:  https://openfoam.org
    \\  /    A nd           | Version:  10
     \\/     M anipulation  |
\*---------------------------------------------------------------------------*/
FoamFile
{
    format      ascii;
    class       volVectorField;
    location    "2000";
    object      U;
}
// * * * * * * * * * * * * * * * * * * * * * * * * * * * * * * * * * * * * * //

dimensions      [0 1 -1 0 0 0 0];

internalField   nonuniform List<vector> 
55398
(
(10.3558 0.161009 17.8449)
(10.6578 0.205193 17.7874)
(10.4132 0.0111052 17.7108)
(10.1811 0.317035 17.3646)
(9.66294 0.409486 16.7515)
(8.35978 0.462457 15.335)
(10.7333 0.104579 18.5596)
(10.8398 0.176623 18.5364)
(10.7103 0.237517 18.5155)
(10.6097 0.421626 18.4587)
(10.4061 0.618063 18.3837)
(10.0096 1.00362 18.274)
(9.23746 1.7561 17.9707)
(7.032 2.93578 16.14)
(-1.67934 0.0836779 10.3994)
(-0.0688626 -0.111225 11.9128)
(2.06184 -0.27592 13.0999)
(3.8952 -0.415127 14.1581)
(5.27914 -0.209067 14.6424)
(6.54423 -0.531513 15.3072)
(11.0608 0.103061 19.1246)
(11.0658 0.186621 19.1135)
(10.9991 0.339544 19.0833)
(10.897 0.531027 19.0365)
(10.7284 0.825045 18.9753)
(10.4664 1.37204 18.8514)
(10.089 2.5186 18.6393)
(9.88443 4.13123 18.0461)
(-0.266936 0.254206 7.93629)
(7.22494 -1.15995 14.5998)
(8.69492 -1.20454 15.8557)
(9.68637 -1.04832 16.6002)
(10.4208 -0.92187 17.4037)
(11.0174 -0.730808 17.8027)
(11.2336 -0.682716 18.0974)
(11.2566 0.0911717 19.4727)
(11.2582 0.202902 19.4596)
(11.214 0.359232 19.4353)
(11.1458 0.572183 19.397)
(11.0587 0.887239 19.3464)
(10.9236 1.43191 19.2387)
(10.9794 2.43577 19.0701)
(11.1475 3.74479 18.7945)
(13.5239 5.47101 18.0157)
(14.1334 1.87453 16.2468)
(11.2442 -1.23019 15.8508)
(12.44 -1.40583 17.6015)
(12.7812 -1.38655 18.4102)
(12.5338 -1.23307 18.6482)
(12.3467 -1.0669 18.7486)
(12.2393 -0.816132 18.8391)
(12.2391 -0.788217 18.9181)
(12.2061 -0.689804 19.0117)
(11.4189 0.0873975 19.7613)
(11.4238 0.211318 19.7497)
(11.401 0.375729 19.7291)
(11.3707 0.594914 19.6975)
(11.347 0.91336 19.6522)
(11.3562 1.4037 19.5717)
(11.5506 2.25339 19.4286)
(12.5825 3.16841 19.2373)
(14.1206 3.46155 18.8916)
(15.2794 1.94508 18.5629)
(16.1437 0.802736 18.3127)
(14.9128 -1.26504 18.3962)
(14.0327 -1.22783 18.7634)
(13.5544 -1.24129 18.8855)
(13.2422 -1.22676 19.0433)
(12.9203 -1.11398 19.1762)
(12.7174 -1.00189 19.2359)
(12.5791 -0.821275 19.3226)
(12.5481 -0.769625 19.3577)
(12.4537 -0.6754 19.421)
(11.5595 0.0812701 20.009)
(11.5682 0.213538 19.9989)
(11.565 0.379028 19.9815)
(11.5666 0.595845 19.9543)
(11.6001 0.897642 19.9177)
(11.6919 1.33707 19.8457)
(12.0039 1.96184 19.7555)
(12.9257 2.7398 19.5826)
(14.3814 2.27713 19.4178)
(15.2208 1.53719 19.3077)
(15.524 0.207834 19.2209)
(14.8855 -0.662641 19.269)
(14.2012 -1.00967 19.3431)
(13.8126 -1.0844 19.4029)
(13.4955 -1.10337 19.4855)
(13.1746 -1.02335 19.5653)
(12.9648 -0.931903 19.6036)
(12.7854 -0.765242 19.6689)
(12.7315 -0.72486 19.6981)
(12.5945 -0.651748 19.7472)
(11.6831 0.0768425 20.2258)
(11.6958 0.211255 20.2173)
(11.7093 0.373848 20.2024)
(11.7403 0.581542 20.1803)
(11.8121 0.860098 20.1492)
(11.9727 1.23718 20.0921)
(12.2988 1.7212 20.0191)
(13.1242 2.21228 19.9153)
(14.2329 1.90531 19.7908)
(14.9596 1.23698 19.708)
(15.1895 0.245029 19.6877)
(14.7804 -0.588624 19.6834)
(14.302 -0.858099 19.722)
(13.9238 -0.946938 19.7659)
(13.6161 -0.960026 19.8222)
(13.303 -0.902816 19.8793)
(13.0983 -0.839887 19.9085)
(12.9007 -0.71915 19.9608)
(12.8361 -0.687254 19.9835)
(12.6725 -0.621985 20.023)
(11.7934 0.0715438 20.4187)
(11.81 0.204056 20.4114)
(11.8379 0.359745 20.3988)
(11.8922 0.55411 20.3808)
(11.9947 0.80385 20.3556)
(12.192 1.12026 20.3131)
(12.5364 1.48594 20.2562)
(13.2343 1.84133 20.1765)
(14.1295 1.59555 20.0955)
(14.7282 1.07074 20.0341)
(14.9579 0.234385 20.0101)
(14.7043 -0.372894 20.0056)
(14.3144 -0.655466 20.0302)
(13.963 -0.781359 20.0743)
(13.6818 -0.82979 20.1126)
(13.3928 -0.80602 20.1515)
(13.2005 -0.762546 20.1723)
(12.9986 -0.661859 20.2133)
(12.9247 -0.633409 20.2316)
(12.7389 -0.580142 20.2646)
(11.8932 0.0664429 20.5929)
(11.9136 0.19332 20.5872)
(11.9534 0.339178 20.5767)
(12.0257 0.517425 20.5611)
(12.1499 0.737017 20.5403)
(12.3686 1.00142 20.5081)
(12.713 1.2793 20.4647)
(13.3062 1.52641 20.4047)
(14.0368 1.32852 20.3477)
(14.5438 0.895831 20.3057)
(14.7608 0.26362 20.2876)
(14.585 -0.290496 20.2803)
(14.2877 -0.557248 20.2947)
(13.9919 -0.679874 20.328)
(13.7371 -0.727068 20.356)
(13.4687 -0.711115 20.385)
(13.2818 -0.679948 20.4013)
(13.0748 -0.603404 20.4328)
(12.9944 -0.581894 20.4476)
(12.7932 -0.537974 20.4731)
(11.9839 0.0604519 20.7512)
(12.0077 0.179367 20.747)
(12.0575 0.313312 20.7382)
(12.1435 0.473644 20.7246)
(12.2829 0.663755 20.7074)
(12.5097 0.884229 20.6817)
(12.8453 1.09522 20.6484)
(13.3585 1.26464 20.6036)
(13.9676 1.10596 20.5613)
(14.3955 0.760928 20.5312)
(14.6009 0.245041 20.5162)
(14.4972 -0.194834 20.5077)
(14.2647 -0.430695 20.517)
(14.0025 -0.555481 20.5438)
(13.7705 -0.611704 20.566)
(13.5206 -0.614887 20.5869)
(13.343 -0.598554 20.5989)
(13.1363 -0.540954 20.6235)
(13.0512 -0.523488 20.6359)
(12.8372 -0.487709 20.6564)
(12.0672 0.0545454 20.8959)
(12.0935 0.162816 20.8925)
(12.151 0.283233 20.8852)
(12.2475 0.424427 20.874)
(12.3974 0.586938 20.86)
(12.6272 0.768821 20.8389)
(12.9489 0.931199 20.813)
(13.3996 1.04388 20.7814)
(13.9107 0.914653 20.7505)
(14.2835 0.632671 20.7277)
(14.4709 0.230291 20.715)
(14.4109 -0.136907 20.7091)
(14.2299 -0.351127 20.7133)
(14.006 -0.471042 20.734)
(13.7973 -0.527636 20.7508)
(13.5671 -0.535021 20.767)
(13.3974 -0.524505 20.7762)
(13.1914 -0.479883 20.7956)
(13.1027 -0.466468 20.8053)
(12.879 -0.437263 20.8217)
(12.1443 0.0480701 21.0295)
(12.1728 0.14428 21.0267)
(12.2362 0.250031 21.0208)
(12.3404 0.371792 21.0117)
(12.497 0.508197 21.0005)
(12.7248 0.656202 20.9836)
(13.0322 0.780615 20.9628)
(13.4325 0.855815 20.9409)
(13.8706 0.750626 20.9187)
(14.1973 0.525712 20.9007)
(14.3703 0.203087 20.8904)
(14.3423 -0.0942092 20.8859)
(14.2048 -0.273497 20.8874)
(14.0119 -0.381142 20.9022)
(13.8208 -0.435377 20.9158)
(13.6055 -0.44872 20.9289)
(13.4419 -0.445838 20.9355)
(13.238 -0.414106 20.9508)
(13.1469 -0.404301 20.9585)
(12.9164 -0.381408 20.9717)
(12.2159 0.0413062 21.1536)
(12.2462 0.124237 21.1514)
(12.3142 0.214509 21.1467)
(12.4238 0.316824 21.1395)
(12.5843 0.428814 21.1307)
(12.8088 0.546565 21.1176)
(13.1018 0.640519 21.1018)
(13.462 0.69089 21.0858)
(13.8449 0.606041 21.0694)
(14.1368 0.427075 21.0561)
(14.2955 0.175807 21.0483)
(14.2887 -0.0640227 21.0449)
(14.181 -0.215016 21.0454)
(14.0155 -0.310692 21.0545)
(13.8409 -0.360759 21.066)
(13.6396 -0.375771 21.076)
(13.4824 -0.375963 21.0811)
(13.2811 -0.352212 21.0928)
(13.1888 -0.3447 21.0988)
(12.9533 -0.326406 21.1092)
(12.2828 0.0341957 21.2695)
(12.3144 0.102979 21.2677)
(12.3858 0.177273 21.2641)
(12.4992 0.260352 21.2587)
(12.6614 0.349997 21.2514)
(12.8822 0.441499 21.2417)
(13.1623 0.510888 21.2303)
(13.4912 0.545428 21.2187)
(13.8326 0.477809 21.2067)
(14.0998 0.338262 21.197)
(14.2444 0.144473 21.1911)
(14.2517 -0.0442375 21.1896)
(14.1677 -0.163817 21.1897)
(14.024 -0.241749 21.1953)
(13.8632 -0.284935 21.2037)
(13.6737 -0.300114 21.211)
(13.5214 -0.302678 21.2148)
(13.3223 -0.286257 21.2237)
(13.229 -0.281053 21.2282)
(12.99 -0.267401 21.2361)
(12.3456 0.0268361 21.3781)
(12.3783 0.0808675 21.3769)
(12.4521 0.138868 21.3742)
(12.5679 0.203057 21.3703)
(12.731 0.271485 21.3644)
(12.9473 0.339304 21.3578)
(13.2183 0.389124 21.3498)
(13.5191 0.411775 21.3418)
(13.8478 0.359 21.3331)
(14.064 0.258374 21.3269)
(14.2453 0.11648 21.3226)
(14.2351 -0.0294917 21.3223)
(14.1662 -0.121337 21.322)
(14.0367 -0.183111 21.325)
(13.8874 -0.217923 21.3308)
(13.7079 -0.23159 21.3359)
(13.56 -0.235034 21.3387)
(13.3632 -0.223711 21.3452)
(13.2697 -0.220073 21.3485)
(13.0286 -0.209883 21.3542)
(12.4047 0.0192846 21.4804)
(12.4381 0.0581521 21.4796)
(12.5136 0.0996663 21.4778)
(12.6311 0.145287 21.4751)
(12.7948 0.193285 21.4712)
(13.0078 0.240209 21.4668)
(13.2695 0.274132 21.4615)
(13.5563 0.286141 21.4563)
(13.8532 0.252659 21.4507)
(14.0727 0.178561 21.4464)
(14.2153 0.0771156 21.4436)
(14.2361 -0.0145712 21.4436)
(14.1793 -0.081602 21.4433)
(14.0601 -0.126778 21.4452)
(13.9192 -0.152385 21.4491)
(13.7468 -0.162944 21.4525)
(13.6022 -0.166057 21.4544)
(13.4071 -0.158737 21.4589)
(13.3132 -0.156441 21.461)
(13.0706 -0.149566 21.4651)
(12.4605 0.0115886 21.5771)
(12.4943 0.0349995 21.5766)
(12.5709 0.0599377 21.5755)
(12.6893 0.0872313 21.574)
(12.8532 0.115534 21.5719)
(13.064 0.143401 21.5693)
(13.3194 0.16253 21.5664)
(13.5965 0.170807 21.5635)
(13.875 0.148771 21.5604)
(14.0953 0.107587 21.558)
(14.2284 0.0463645 21.5562)
(14.2489 -0.00841637 21.5564)
(14.2013 -0.0474105 21.5562)
(14.0896 -0.0746247 21.5575)
(13.9547 -0.090549 21.5604)
(13.7873 -0.0974849 21.5623)
(13.6449 -0.099831 21.5636)
(13.4514 -0.095821 21.5666)
(13.3574 -0.0946823 21.568)
(13.1141 -0.0906763 21.5706)
(12.5133 0.00384708 21.6683)
(12.5473 0.0116468 21.6677)
(12.6242 0.0199578 21.6669)
(12.7429 0.029039 21.666)
(12.9068 0.0383585 21.6649)
(13.116 0.0474442 21.6636)
(13.3697 0.0532623 21.6623)
(13.637 0.0567128 21.661)
(13.9248 0.0479814 21.6598)
(14.1141 0.0350951 21.6589)
(14.2752 0.0185292 21.6582)
(14.2744 -0.00606378 21.6578)
(14.2359 -0.0166818 21.6574)
(14.1275 -0.0249709 21.6571)
(13.9949 -0.0300453 21.6567)
(13.8295 -0.0324199 21.6562)
(13.6878 -0.033108 21.6559)
(13.4941 -0.0316636 21.6555)
(13.3998 -0.0312427 21.6552)
(13.1556 -0.0298735 21.6549)
(10.361 0.153876 17.8532)
(10.666 0.209446 17.831)
(10.4493 0.0871049 17.8008)
(10.3098 0.339303 17.6475)
(9.59034 0.351822 16.6483)
(8.78783 0.517951 16.0883)
(10.7419 0.103406 18.5763)
(10.85 0.176565 18.5658)
(10.7251 0.242258 18.5436)
(10.6228 0.425568 18.4861)
(10.4149 0.61986 18.3993)
(10.0213 1.01529 18.2975)
(9.24577 1.78993 17.9753)
(6.46026 2.87267 15.4316)
(-1.5293 0.235881 10.9194)
(0.137688 -0.185307 12.125)
(2.27732 -0.373366 13.241)
(3.97836 -0.348915 14.0939)
(5.20444 -0.242536 14.5618)
(6.80633 -0.476989 15.4312)
(11.0643 0.102644 19.1323)
(11.0692 0.186608 19.1237)
(11.006 0.33992 19.0964)
(10.908 0.533176 19.0525)
(10.7386 0.829756 18.9926)
(10.4933 1.37363 18.8709)
(10.1943 2.51355 18.6752)
(9.78799 4.22077 18.021)
(-0.0461805 0.291662 7.72783)
(7.43822 -1.15783 14.666)
(9.07449 -1.23085 16.1101)
(9.90104 -1.05891 16.7495)
(10.8931 -0.899633 17.6801)
(11.0048 -0.733556 17.7637)
(11.4252 -0.672189 18.1946)
(11.2583 0.0912922 19.477)
(11.2618 0.203698 19.4683)
(11.2191 0.360317 19.4449)
(11.1547 0.574079 19.4081)
(11.0682 0.888988 19.3584)
(10.9465 1.43269 19.2531)
(11.0443 2.41061 19.0951)
(11.1484 3.73112 18.8028)
(13.6469 5.57762 17.9277)
(14.15 1.82354 16.4949)
(10.9173 -1.18266 15.5402)
(12.8444 -1.42255 18.0253)
(12.7983 -1.36787 18.4372)
(12.5609 -1.22689 18.6797)
(12.362 -1.0682 18.7622)
(12.2648 -0.803925 18.8658)
(12.2614 -0.787154 18.9456)
(12.2422 -0.679334 19.0463)
(11.4203 0.0875435 19.7646)
(11.4265 0.211904 19.7566)
(11.4052 0.376637 19.7366)
(11.3781 0.596163 19.706)
(11.3543 0.914619 19.6617)
(11.3754 1.4003 19.581)
(11.5822 2.23387 19.4538)
(12.5937 3.11129 19.2674)
(14.0548 3.41954 18.9728)
(15.2518 1.96304 18.6369)
(16.1027 0.433247 18.4251)
(14.9352 -1.26786 18.418)
(14.0007 -1.24767 18.8047)
(13.5773 -1.19956 18.9137)
(13.266 -1.22049 19.0697)
(12.9311 -1.11077 19.1889)
(12.7231 -0.997528 19.2421)
(12.5844 -0.814019 19.3303)
(12.5577 -0.76475 19.3729)
(12.4703 -0.668159 19.4438)
(11.5606 0.0813925 20.0116)
(11.5704 0.213967 20.0044)
(11.5684 0.379459 19.9875)
(11.5726 0.596245 19.9611)
(11.6059 0.897538 19.9252)
(11.7058 1.33302 19.8536)
(12.0248 1.93749 19.7758)
(12.9272 2.71139 19.6071)
(14.357 2.24732 19.4484)
(15.2076 1.53943 19.3298)
(15.4671 0.118746 19.307)
(14.8891 -0.664306 19.2882)
(14.1898 -1.01192 19.3343)
(13.8106 -1.07313 19.4024)
(13.5017 -1.09273 19.5018)
(13.18 -1.01703 19.5757)
(12.9686 -0.928678 19.6097)
(12.7882 -0.762157 19.6757)
(12.7361 -0.721807 19.7094)
(12.6031 -0.647527 19.7653)
(11.684 0.0769527 20.228)
(11.6976 0.211556 20.2218)
(11.712 0.374054 20.2072)
(11.7448 0.581254 20.1853)
(11.8163 0.859739 20.1543)
(11.9814 1.23168 20.0981)
(12.3117 1.7041 20.0341)
(13.1212 2.18762 19.934)
(14.2171 1.89772 19.8156)
(14.9487 1.23151 19.7272)
(15.1824 0.235661 19.6945)
(14.7777 -0.582303 19.6942)
(14.3014 -0.857948 19.7192)
(13.9216 -0.942974 19.7686)
(13.6194 -0.955816 19.8304)
(13.3061 -0.899745 19.8868)
(13.1006 -0.837027 19.9134)
(12.9016 -0.716191 19.964)
(12.8387 -0.684283 19.9905)
(12.6783 -0.61799 20.0376)
(11.7942 0.0716584 20.4204)
(11.8116 0.2043 20.4151)
(11.8402 0.359814 20.4027)
(11.8956 0.553793 20.3845)
(11.9975 0.802862 20.3583)
(12.1968 1.11963 20.316)
(12.5396 1.47435 20.2657)
(13.2306 1.82504 20.191)
(14.1196 1.58609 20.1126)
(14.7197 1.06902 20.0485)
(14.9488 0.23284 20.0229)
(14.7023 -0.369783 20.0126)
(14.3136 -0.657002 20.03)
(13.9627 -0.780527 20.0749)
(13.6817 -0.82746 20.1154)
(13.3945 -0.80281 20.1575)
(13.2021 -0.760212 20.1768)
(12.9989 -0.660847 20.2134)
(12.9257 -0.631608 20.2353)
(12.743 -0.576686 20.2757)
(11.8936 0.0664123 20.5938)
(11.9144 0.193566 20.589)
(11.9549 0.339296 20.5787)
(12.0282 0.517076 20.5635)
(12.1522 0.736114 20.5423)
(12.3695 1.00052 20.5093)
(12.7132 1.27558 20.4682)
(13.3034 1.51418 20.4146)
(14.0302 1.32083 20.3602)
(14.538 0.892008 20.316)
(14.7541 0.263072 20.2981)
(14.5831 -0.285605 20.2868)
(14.2865 -0.55697 20.2968)
(13.9915 -0.679393 20.3284)
(13.7371 -0.725424 20.3577)
(13.4697 -0.70858 20.3891)
(13.283 -0.677854 20.4047)
(13.075 -0.602696 20.4328)
(12.995 -0.580544 20.4503)
(12.7962 -0.534584 20.4819)
(11.9842 0.060516 20.7516)
(12.0081 0.179427 20.7476)
(12.0582 0.313237 20.7391)
(12.1452 0.473045 20.7263)
(12.2848 0.662811 20.7091)
(12.5104 0.883218 20.6829)
(12.8454 1.09261 20.6508)
(13.3565 1.25639 20.6111)
(13.9629 1.09999 20.5706)
(14.3912 0.758231 20.5389)
(14.5958 0.243473 20.5244)
(14.4948 -0.193365 20.5123)
(14.2642 -0.430318 20.5192)
(14.0022 -0.55556 20.5437)
(13.7701 -0.611069 20.5665)
(13.5212 -0.612866 20.59)
(13.3438 -0.596884 20.6017)
(13.1366 -0.540555 20.6235)
(13.0517 -0.522435 20.6378)
(12.8397 -0.484703 20.6634)
(12.0674 0.0545947 20.8962)
(12.0938 0.162827 20.8929)
(12.1516 0.283097 20.8859)
(12.2489 0.423828 20.8754)
(12.3988 0.58599 20.8614)
(12.6271 0.766761 20.8405)
(12.9493 0.927697 20.8157)
(13.3986 1.03819 20.7865)
(13.9073 0.911186 20.7565)
(14.2811 0.63014 20.7332)
(14.4675 0.228884 20.7213)
(14.4083 -0.135335 20.7143)
(14.2291 -0.350245 20.7168)
(14.0059 -0.470863 20.7342)
(13.797 -0.527018 20.7512)
(13.5676 -0.533475 20.7692)
(13.3978 -0.523114 20.7781)
(13.1916 -0.479561 20.7955)
(13.103 -0.465449 20.8068)
(12.8809 -0.4345 20.8273)
(12.1444 0.0480891 21.0297)
(12.173 0.144261 21.0271)
(12.2367 0.249875 21.0214)
(12.3414 0.371234 21.0129)
(12.4981 0.507333 21.0017)
(12.7255 0.654529 20.9853)
(13.0325 0.776737 20.9663)
(13.4318 0.851427 20.9445)
(13.8696 0.748202 20.9219)
(14.1957 0.524017 20.9046)
(14.3681 0.202351 20.8948)
(14.3394 -0.0930992 20.8926)
(14.2039 -0.272233 20.892)
(14.012 -0.381525 20.9016)
(13.8205 -0.435226 20.9154)
(13.6058 -0.447665 20.9301)
(13.4423 -0.444802 20.9371)
(13.2381 -0.413861 20.9507)
(13.1472 -0.403459 20.9597)
(12.918 -0.379038 20.9762)
(12.216 0.041321 21.1538)
(12.2463 0.124211 21.1517)
(12.3145 0.21436 21.1472)
(12.4246 0.316317 21.1405)
(12.5851 0.428063 21.1316)
(12.8093 0.545092 21.119)
(13.102 0.6376 21.1046)
(13.4616 0.68776 21.0887)
(13.8443 0.604065 21.0721)
(14.1357 0.425761 21.0591)
(14.2941 0.175374 21.0515)
(14.2869 -0.0632004 21.0497)
(14.1806 -0.213678 21.049)
(14.0155 -0.311291 21.0531)
(13.8409 -0.360878 21.0644)
(13.6397 -0.375221 21.0765)
(13.4827 -0.375159 21.0822)
(13.2812 -0.352006 21.0927)
(13.189 -0.343945 21.0997)
(12.9546 -0.324289 21.1127)
(12.2829 0.0342103 21.2696)
(12.3146 0.102956 21.268)
(12.3861 0.177144 21.2645)
(12.4998 0.259914 21.2595)
(12.6619 0.349096 21.2525)
(12.8825 0.440046 21.2432)
(13.1623 0.508635 21.2325)
(13.4909 0.543144 21.2209)
(13.8323 0.476267 21.2087)
(14.0991 0.337262 21.1993)
(14.2439 0.144162 21.1934)
(14.2509 -0.0438761 21.1924)
(14.1677 -0.162968 21.1913)
(14.0241 -0.242199 21.1945)
(13.863 -0.285258 21.2027)
(13.6738 -0.299761 21.2113)
(13.5216 -0.302055 21.2157)
(13.3223 -0.286097 21.2236)
(13.2291 -0.280459 21.2289)
(12.9911 -0.265683 21.2388)
(12.3456 0.0268492 21.3782)
(12.3784 0.0808501 21.377)
(12.4523 0.138765 21.3745)
(12.5684 0.202723 21.3709)
(12.7315 0.270663 21.3654)
(12.9475 0.337965 21.3592)
(13.2183 0.387482 21.3515)
(13.5189 0.410163 21.3434)
(13.8478 0.357921 21.3344)
(14.0635 0.257679 21.3284)
(14.2453 0.116182 21.3242)
(14.235 -0.029082 21.3236)
(14.1664 -0.121018 21.3223)
(14.0367 -0.183268 21.325)
(13.8873 -0.217903 21.3308)
(13.708 -0.231297 21.3363)
(13.5602 -0.23456 21.3393)
(13.3633 -0.22359 21.3451)
(13.2698 -0.219591 21.349)
(13.0295 -0.208475 21.3561)
(12.4047 0.0192985 21.4805)
(12.4382 0.0581422 21.4797)
(12.5137 0.0995967 21.478)
(12.6313 0.145056 21.4756)
(12.7951 0.192735 21.4719)
(13.008 0.239358 21.4678)
(13.2695 0.273035 21.4626)
(13.5563 0.285094 21.4574)
(13.8531 0.25197 21.4516)
(14.0729 0.178067 21.4474)
(14.2151 0.0769327 21.4446)
(14.2362 -0.0144221 21.4444)
(14.1795 -0.0814518 21.4435)
(14.0601 -0.12682 21.4452)
(13.9191 -0.152304 21.4491)
(13.7469 -0.162671 21.4527)
(13.6023 -0.165708 21.4548)
(13.4072 -0.15865 21.4588)
(13.3133 -0.156082 21.4614)
(13.0713 -0.148525 21.4664)
(12.4605 0.0115993 21.5771)
(12.4944 0.0349981 21.5766)
(12.571 0.0599023 21.5756)
(12.6895 0.0871049 21.5742)
(12.8534 0.115287 21.5723)
(13.064 0.142909 21.5699)
(13.3194 0.161911 21.567)
(13.5965 0.170238 21.564)
(13.875 0.148363 21.5609)
(14.0954 0.107355 21.5585)
(14.2286 0.0462829 21.5568)
(14.249 -0.00835158 21.557)
(14.2015 -0.0473285 21.5563)
(14.0896 -0.0746496 21.5575)
(13.9546 -0.0904917 21.5605)
(13.7874 -0.0973302 21.5626)
(13.645 -0.0996603 21.5639)
(13.4514 -0.0958245 21.5666)
(13.3574 -0.0944862 21.5682)
(13.1146 -0.0900375 21.5714)
(12.5133 0.00385321 21.6683)
(12.5473 0.0116487 21.6677)
(12.6242 0.019948 21.6669)
(12.7429 0.0290007 21.666)
(12.9069 0.0382956 21.665)
(13.116 0.0473115 21.6638)
(13.3697 0.0530913 21.6625)
(13.637 0.0565546 21.6612)
(13.9248 0.0478626 21.66)
(14.1141 0.0350101 21.659)
(14.2752 0.0185099 21.6583)
(14.2745 -0.00604606 21.6578)
(14.236 -0.0166713 21.6574)
(14.1274 -0.0249848 21.657)
(13.9947 -0.0300504 21.6566)
(13.8295 -0.0323864 21.6562)
(13.6878 -0.0330948 21.6559)
(13.4941 -0.0316917 21.6555)
(13.3998 -0.0311963 21.6551)
(13.1558 -0.0296636 21.6548)
(10.3586 0.15079 17.8543)
(10.6618 0.219226 17.8434)
(10.4508 0.0929816 17.814)
(10.3453 0.340533 17.7304)
(9.7059 0.414688 16.8923)
(8.93379 0.570262 16.323)
(10.7422 0.1041 18.5774)
(10.8493 0.17831 18.5665)
(10.7267 0.244142 18.547)
(10.6263 0.42755 18.4997)
(10.4196 0.626945 18.4146)
(10.0251 1.0167 18.3222)
(9.29937 1.82541 18.0775)
(6.97158 3.10854 16.2261)
(-1.38867 0.131067 11.1796)
(0.212354 -0.184713 12.2304)
(2.45448 -0.353883 13.3362)
(4.63832 -0.440588 14.4736)
(5.4447 -0.272673 14.771)
(7.22697 -0.522904 15.7318)
(11.0642 0.102937 19.1327)
(11.0688 0.187253 19.1239)
(11.0063 0.340681 19.0993)
(10.9088 0.533771 19.0568)
(10.739 0.83115 18.9978)
(10.4967 1.37693 18.8868)
(10.2137 2.50634 18.7137)
(9.97224 4.12769 18.2001)
(0.937422 0.0477634 9.07526)
(7.53416 -1.12051 14.6855)
(9.13209 -1.22433 16.1576)
(10.0016 -1.06832 16.8711)
(11.0884 -0.904066 17.8219)
(11.0526 -0.744858 17.8062)
(11.4531 -0.67186 18.2393)
(11.2582 0.0913785 19.4776)
(11.2616 0.204053 19.469)
(11.2194 0.360897 19.4478)
(11.1554 0.574794 19.4127)
(11.0687 0.889994 19.3641)
(10.9496 1.43243 19.2657)
(11.0536 2.4076 19.1211)
(11.1863 3.69013 18.8493)
(13.4989 5.51562 17.9792)
(14.31 1.85592 16.5936)
(11.0759 -1.13904 15.7691)
(12.889 -1.41883 18.1413)
(12.7832 -1.36813 18.4326)
(12.5545 -1.22602 18.6781)
(12.3817 -1.06366 18.7858)
(12.2947 -0.799337 18.9261)
(12.2769 -0.784317 18.9791)
(12.254 -0.677759 19.0796)
(11.4203 0.0875603 19.7652)
(11.4264 0.21203 19.7574)
(11.4054 0.376859 19.739)
(11.3789 0.59655 19.7099)
(11.3546 0.915112 19.6666)
(11.3779 1.39982 19.5902)
(11.5862 2.23343 19.4712)
(12.5908 3.10961 19.2768)
(14.0385 3.42398 18.9807)
(15.2526 1.96678 18.6501)
(16.0893 0.402929 18.45)
(14.9625 -1.23155 18.4692)
(14.0034 -1.23243 18.8518)
(13.5936 -1.18431 18.9862)
(13.2764 -1.21894 19.0933)
(12.9329 -1.11261 19.1946)
(12.7313 -0.991908 19.2572)
(12.597 -0.809856 19.3585)
(12.5665 -0.762461 19.3951)
(12.4761 -0.666138 19.4627)
(11.5606 0.0814232 20.0121)
(11.5704 0.214066 20.0053)
(11.5686 0.379588 19.9895)
(11.5732 0.596492 19.9643)
(11.6062 0.897621 19.9292)
(11.7078 1.33266 19.8609)
(12.0262 1.93613 19.7865)
(12.9263 2.71001 19.6144)
(14.3576 2.25383 19.4466)
(15.208 1.53915 19.3287)
(15.4623 0.121414 19.294)
(14.899 -0.663304 19.2999)
(14.1862 -1.00601 19.3603)
(13.8149 -1.06683 19.4416)
(13.5061 -1.09023 19.5176)
(13.1812 -1.01462 19.5818)
(12.9733 -0.923882 19.6221)
(12.7949 -0.758993 19.6951)
(12.7409 -0.720653 19.7249)
(12.6061 -0.645953 19.779)
(11.684 0.0769642 20.2284)
(11.6976 0.211606 20.2225)
(11.7122 0.374105 20.209)
(11.7454 0.581407 20.1879)
(11.8166 0.859565 20.1576)
(11.9822 1.23083 20.1034)
(12.3121 1.7031 20.0399)
(13.1208 2.18801 19.9371)
(14.2159 1.90041 19.8129)
(14.9486 1.23397 19.7269)
(15.1832 0.230492 19.6894)
(14.778 -0.580957 19.6958)
(14.2997 -0.852645 19.7243)
(13.9239 -0.93502 19.7788)
(13.6202 -0.955327 19.8369)
(13.3066 -0.900091 19.8897)
(13.1032 -0.833294 19.9234)
(12.9072 -0.711875 19.9799)
(12.8433 -0.681695 20.0046)
(12.6806 -0.616357 20.0484)
(11.7942 0.071652 20.4208)
(11.8116 0.204271 20.4157)
(11.8404 0.35976 20.4042)
(11.896 0.553851 20.3866)
(11.9977 0.802483 20.3609)
(12.1965 1.11958 20.3173)
(12.5398 1.47432 20.2681)
(13.2299 1.82523 20.1924)
(14.1192 1.58751 20.1113)
(14.7204 1.07022 20.0474)
(14.9488 0.234265 20.0218)
(14.7021 -0.367591 20.0169)
(14.3134 -0.658313 20.0234)
(13.9633 -0.778916 20.0714)
(13.682 -0.825979 20.119)
(13.3944 -0.801579 20.1605)
(13.2034 -0.75684 20.1855)
(13.003 -0.657197 20.2264)
(12.9301 -0.629347 20.2473)
(12.745 -0.575456 20.2839)
(11.8936 0.066376 20.5941)
(11.9145 0.193499 20.5896)
(11.955 0.339212 20.5798)
(12.0285 0.517015 20.5651)
(12.1524 0.736018 20.5441)
(12.3695 1.00099 20.5102)
(12.7129 1.27526 20.4692)
(13.3032 1.51446 20.4153)
(14.0301 1.3217 20.3594)
(14.5385 0.892915 20.3152)
(14.7541 0.262812 20.297)
(14.5828 -0.283401 20.2891)
(14.2862 -0.558098 20.2934)
(13.9914 -0.679054 20.3265)
(13.7372 -0.724596 20.3601)
(13.47 -0.708165 20.3911)
(13.284 -0.675053 20.4113)
(13.0777 -0.598774 20.4429)
(12.998 -0.577875 20.4595)
(12.7977 -0.533431 20.4882)
(11.9842 0.0605165 20.7518)
(12.0081 0.179394 20.7479)
(12.0583 0.31317 20.7399)
(12.1454 0.472937 20.7276)
(12.285 0.662767 20.7104)
(12.5104 0.883378 20.6836)
(12.8452 1.09253 20.6517)
(13.3564 1.25677 20.6116)
(13.9628 1.10051 20.5703)
(14.3915 0.75882 20.5383)
(14.5956 0.243012 20.5237)
(14.4934 -0.19058 20.5169)
(14.2637 -0.431139 20.5186)
(14.0021 -0.555703 20.5431)
(13.7699 -0.610683 20.5683)
(13.5213 -0.612186 20.5917)
(13.3444 -0.594522 20.6072)
(13.1387 -0.537252 20.6316)
(13.0542 -0.520144 20.6449)
(12.8408 -0.483693 20.6681)
(12.0674 0.0546015 20.8963)
(12.0938 0.162855 20.8931)
(12.1516 0.283089 20.8865)
(12.2491 0.423785 20.8764)
(12.399 0.585971 20.8624)
(12.6273 0.766662 20.8416)
(12.949 0.927552 20.8165)
(13.3985 1.03846 20.7867)
(13.9074 0.911475 20.7565)
(14.2813 0.630508 20.7329)
(14.4675 0.228706 20.721)
(14.4066 -0.13384 20.7184)
(14.229 -0.350341 20.7165)
(14.006 -0.470762 20.7338)
(13.7968 -0.526512 20.7525)
(13.5678 -0.532937 20.7704)
(13.3982 -0.521111 20.7824)
(13.1931 -0.476504 20.8019)
(13.1049 -0.463137 20.8125)
(12.8818 -0.433561 20.831)
(12.1444 0.0480979 21.0298)
(12.173 0.144291 21.0272)
(12.2367 0.249868 21.0218)
(12.3416 0.371199 21.0137)
(12.4982 0.507303 21.0025)
(12.7255 0.654202 20.9862)
(13.0324 0.776774 20.9669)
(13.4318 0.851729 20.9448)
(13.8696 0.748369 20.922)
(14.1959 0.524202 20.9045)
(14.368 0.202315 20.895)
(14.3391 -0.0920933 20.8941)
(14.2039 -0.272626 20.891)
(14.0122 -0.3812 20.9024)
(13.8203 -0.434421 20.9187)
(13.606 -0.4471 20.9315)
(13.4425 -0.44317 20.9404)
(13.2392 -0.411363 20.9557)
(13.1488 -0.401522 20.9642)
(12.9186 -0.378223 20.979)
(12.216 0.0413303 21.1539)
(12.2463 0.124235 21.1518)
(12.3146 0.214349 21.1475)
(12.4247 0.316277 21.1411)
(12.5852 0.42805 21.1322)
(12.8093 0.544874 21.1197)
(13.1019 0.637653 21.105)
(13.4616 0.687947 21.0888)
(13.8443 0.604201 21.0721)
(14.1358 0.425883 21.0591)
(14.294 0.175362 21.0518)
(14.2866 -0.0625913 21.051)
(14.1806 -0.213868 21.0484)
(14.015 -0.310224 21.0553)
(13.8407 -0.35882 21.0685)
(13.6399 -0.374493 21.0781)
(13.4829 -0.37386 21.0848)
(13.2821 -0.349813 21.0967)
(13.1902 -0.34218 21.1033)
(12.9552 -0.323575 21.1148)
(12.2829 0.0342154 21.2697)
(12.3146 0.102974 21.2681)
(12.3861 0.177131 21.2647)
(12.4999 0.259893 21.2599)
(12.662 0.349056 21.253)
(12.8824 0.43993 21.2437)
(13.1623 0.508684 21.2327)
(13.4909 0.543252 21.2209)
(13.8323 0.476309 21.2088)
(14.0991 0.337355 21.1993)
(14.2439 0.144159 21.1937)
(14.2508 -0.0434368 21.1934)
(14.1677 -0.163026 21.1909)
(14.0238 -0.241874 21.1948)
(13.8629 -0.284274 21.2037)
(13.6741 -0.299174 21.2123)
(13.5219 -0.300999 21.2176)
(13.323 -0.28434 21.2267)
(13.2301 -0.27906 21.2316)
(12.9915 -0.265113 21.2404)
(12.3457 0.0268528 21.3783)
(12.3784 0.0808632 21.3771)
(12.4523 0.138752 21.3747)
(12.5684 0.202708 21.3712)
(12.7315 0.270521 21.3658)
(12.9474 0.337936 21.3595)
(13.2183 0.387506 21.3516)
(13.5189 0.410247 21.3434)
(13.8478 0.35795 21.3345)
(14.0636 0.257742 21.3285)
(14.2453 0.116182 21.3245)
(14.235 -0.0289093 21.3241)
(14.1665 -0.120996 21.3221)
(14.0367 -0.183605 21.3235)
(13.8872 -0.217582 21.3304)
(13.7081 -0.230881 21.3369)
(13.5604 -0.233735 21.3408)
(13.3638 -0.222174 21.3474)
(13.2706 -0.218449 21.3509)
(13.0299 -0.208017 21.3573)
(12.4047 0.0193037 21.4805)
(12.4382 0.0581521 21.4797)
(12.5137 0.099589 21.4781)
(12.6314 0.145043 21.4757)
(12.7951 0.192659 21.4721)
(13.008 0.239351 21.4679)
(13.2695 0.273076 21.4627)
(13.5563 0.285152 21.4574)
(13.8531 0.251986 21.4517)
(14.0729 0.17811 21.4474)
(14.215 0.0769344 21.4448)
(14.2362 -0.0143019 21.4447)
(14.1795 -0.081484 21.4434)
(14.0601 -0.127093 21.4442)
(13.919 -0.152205 21.4489)
(13.747 -0.162302 21.4533)
(13.6026 -0.165077 21.4558)
(13.4075 -0.157616 21.4604)
(13.3139 -0.155245 21.4628)
(13.0716 -0.148191 21.4672)
(12.4605 0.0116043 21.5772)
(12.4944 0.0350034 21.5767)
(12.571 0.0598995 21.5757)
(12.6895 0.0871027 21.5743)
(12.8534 0.115284 21.5723)
(13.064 0.142922 21.5699)
(13.3194 0.161937 21.567)
(13.5965 0.170274 21.564)
(13.875 0.148371 21.5609)
(14.0954 0.107388 21.5585)
(14.2286 0.0462845 21.5569)
(14.2491 -0.00827767 21.5571)
(14.2015 -0.0473472 21.5563)
(14.0896 -0.0748929 21.5569)
(13.9545 -0.0904088 21.5606)
(13.7876 -0.0970337 21.5633)
(13.6452 -0.09929 21.5645)
(13.4515 -0.0952045 21.5676)
(13.3579 -0.0939728 21.5691)
(13.1148 -0.0898218 21.5719)
(12.5133 0.00385396 21.6683)
(12.5473 0.0116515 21.6677)
(12.6242 0.0199468 21.667)
(12.7429 0.029001 21.6661)
(12.9069 0.0382866 21.665)
(13.116 0.0473165 21.6637)
(13.3697 0.0530983 21.6624)
(13.637 0.056568 21.6611)
(13.9248 0.0478663 21.6599)
(14.1141 0.0350172 21.659)
(14.2752 0.0185188 21.6583)
(14.2745 -0.0060034 21.6579)
(14.236 -0.0166897 21.6573)
(14.1274 -0.025115 21.6568)
(13.9945 -0.0300227 21.6566)
(13.8294 -0.0322643 21.6563)
(13.6879 -0.0330104 21.656)
(13.494 -0.0315213 21.6556)
(13.3999 -0.0310383 21.6553)
(13.1558 -0.0296008 21.655)
(10.3569 0.149326 17.8548)
(10.6561 0.220195 17.8477)
(10.448 0.0915648 17.8199)
(10.3554 0.331099 17.7513)
(9.758 0.417519 16.9665)
(8.95728 0.578025 16.3653)
(10.7422 0.104781 18.578)
(10.8484 0.17983 18.567)
(10.7271 0.2452 18.5485)
(10.626 0.427312 18.5002)
(10.4198 0.626845 18.4148)
(10.0237 1.0161 18.3232)
(9.3034 1.82785 18.0735)
(7.06509 3.11874 16.3486)
(-1.4123 0.132854 11.1624)
(0.191815 -0.183251 12.2555)
(2.45045 -0.331895 13.3238)
(4.80167 -0.484594 14.5262)
(5.59424 -0.265062 14.9151)
(7.22323 -0.52457 15.7185)
(11.064 0.103445 19.1325)
(11.0683 0.188104 19.1234)
(11.0063 0.341175 19.0996)
(10.9087 0.534287 19.0568)
(10.739 0.831878 18.9976)
(10.4982 1.37922 18.8908)
(10.2134 2.5093 18.7199)
(9.98185 4.10397 18.1928)
(1.11025 -0.127451 9.28928)
(7.45304 -1.07343 14.5524)
(9.13767 -1.21556 16.1732)
(10.0153 -1.07566 16.9103)
(11.1108 -0.904644 17.8472)
(11.084 -0.750823 17.8295)
(11.4493 -0.669136 18.2395)
(11.2582 0.091451 19.4773)
(11.2615 0.204422 19.4685)
(11.2194 0.361113 19.4477)
(11.1553 0.574997 19.4126)
(11.0685 0.890352 19.3638)
(10.9508 1.43195 19.2687)
(11.0524 2.40601 19.1253)
(11.1881 3.69142 18.8555)
(13.4795 5.53183 17.918)
(14.4178 1.92951 16.6984)
(11.0165 -1.22815 15.9502)
(12.9037 -1.41543 18.1591)
(12.7668 -1.36663 18.4195)
(12.5456 -1.22489 18.67)
(12.3867 -1.05952 18.7927)
(12.2995 -0.806934 18.943)
(12.2795 -0.783872 18.9893)
(12.2534 -0.67845 19.0843)
(11.4202 0.0875969 19.765)
(11.4264 0.212124 19.757)
(11.4054 0.376913 19.7388)
(11.3788 0.596586 19.7098)
(11.3544 0.915183 19.6663)
(11.3789 1.39952 19.5934)
(11.5855 2.23312 19.4721)
(12.587 3.10908 19.2863)
(14.0292 3.43548 18.9939)
(15.2602 1.97019 18.6591)
(16.0872 0.38814 18.4512)
(14.9721 -1.2086 18.4943)
(13.9967 -1.23434 18.8619)
(13.5922 -1.18915 18.9872)
(13.2762 -1.21878 19.0918)
(12.9338 -1.11411 19.1952)
(12.7323 -0.990738 19.2601)
(12.5961 -0.813943 19.362)
(12.5665 -0.763761 19.3983)
(12.4754 -0.667397 19.4652)
(11.5606 0.0814461 20.012)
(11.5703 0.214117 20.0049)
(11.5685 0.37962 19.9894)
(11.5731 0.596526 19.9643)
(11.6061 0.897609 19.929)
(11.7082 1.33263 19.8635)
(12.0257 1.93615 19.7874)
(12.9239 2.70876 19.6205)
(14.3568 2.26016 19.45)
(15.2079 1.53854 19.3307)
(15.456 0.122481 19.2856)