/*--------------------------------*- C++ -*----------------------------------*\
  =========                 |
  \\      /  F ield         | OpenFOAM: The Open Source CFD Toolbox
   \\    /   O peration     | Website:  https://openfoam.org
    \\  /    A nd           | Version:  10
     \\/     M anipulation  |
\*---------------------------------------------------------------------------*/
FoamFile
{
    format      ascii;
    class       volScalarField;
    location    "2000";
    object      k;
}
// * * * * * * * * * * * * * * * * * * * * * * * * * * * * * * * * * * * * * //

dimensions      [0 2 -2 0 0 0 0];

internalField   nonuniform List<scalar> 
52338
(
0.590419
1.7961
1.80947
1.7266
1.66825
1.68288
0.174034
0.907533
1.34554
1.50209
1.59195
1.60892
1.52981
1.48427
2.24312
2.28469
2.07869
2.03331
2.04958
2.00839
0.121313
0.468769
0.9349
1.23602
1.4105
1.49518
1.54265
1.71064
2.48337
2.06643
2.07094
2.00963
1.99129
1.95469
1.91718
0.0910199
0.234571
0.624274
0.988981
1.24128
1.39258
1.48366
1.60363
2.02028
2.4557
2.42866
2.03743
2.00834
1.99353
1.95606
1.92152
1.87535
1.84814
0.0836316
0.114101
0.388106
0.739648
1.04905
1.26668
1.41124
1.57562
1.80062
2.13547
2.27019
2.21533
2.15038
1.92173
1.92393
1.9175
1.88515
1.84911
1.8042
1.7781
0.0818822
0.0643825
0.220035
0.518503
0.84446
1.11555
1.3134
1.48654
1.69433
1.90978
2.02116
2.01979
1.95414
1.8483
1.84251
1.83763
1.81028
1.77419
1.73234
1.70605
0.0814687
0.0478709
0.116084
0.34593
0.645164
0.942924
1.18567
1.38075
1.57085
1.75493
1.86394
1.88246
1.84112
1.77551
1.76239
1.75405
1.72969
1.69483
1.65589
1.62985
0.0813669
0.0430834
0.0611297
0.214493
0.469845
0.762654
1.03471
1.25584
1.44535
1.61246
1.72088
1.75914
1.73895
1.69774
1.68047
1.66699
1.64387
1.61073
1.57428
1.54876
0.0813599
0.0417571
0.0378005
0.122793
0.328382
0.5896
0.866532
1.11084
1.31079
1.47395
1.58556
1.63963
1.63797
1.61235
1.59325
1.57653
1.55373
1.52236
1.48804
1.46318
0.0814054
0.0413385
0.0296578
0.0658734
0.215143
0.438836
0.695758
0.949857
1.1637
1.33232
1.45083
1.5188
1.53196
1.51874
1.50096
1.48247
1.4601
1.43066
1.39838
1.37428
0.0814814
0.0411575
0.0271422
0.0365778
0.129806
0.313194
0.536754
0.781103
1.0045
1.18296
1.31128
1.38877
1.41962
1.41642
1.40241
1.38479
1.36399
1.33705
1.307
1.2838
0.0815743
0.041062
0.0263581
0.0245197
0.0714581
0.208306
0.397871
0.618251
0.837185
1.02411
1.16315
1.25133
1.29411
1.30431
1.29763
1.28424
1.26692
1.24343
1.21607
1.19402
0.0816756
0.0410146
0.0260481
0.0204849
0.0379849
0.127765
0.281339
0.469484
0.671467
0.857355
1.00459
1.10331
1.15985
1.18379
1.18876
1.1828
1.17121
1.15236
1.12827
1.10766
0.0817809
0.0409989
0.0258751
0.019191
0.021827
0.0692156
0.185913
0.342419
0.518424
0.691219
0.83811
0.946266
1.0189
1.06035
1.08005
1.08462
1.08023
1.06708
1.0468
1.0279
0.0818874
0.0410031
0.0257563
0.0187639
0.016548
0.0344794
0.110756
0.236611
0.384292
0.537612
0.677979
0.793649
0.882842
0.942693
0.977877
0.994386
0.998344
0.991449
0.975212
0.958148
0.0819918
0.0410089
0.0256413
0.0184784
0.014952
0.0183978
0.0571789
0.149562
0.272183
0.406952
0.54214
0.664981
0.765198
0.839826
0.889111
0.917704
0.930574
0.929681
0.917228
0.901886
0.0820617
0.0409277
0.0253751
0.0179972
0.0140284
0.0127162
0.0253377
0.0814237
0.179944
0.302392
0.436326
0.565726
0.676155
0.762398
0.823366
0.861932
0.881985
0.885823
0.876303
0.862272
0.081888
0.0405018
0.0247152
0.0171153
0.0128944
0.0104601
0.0120024
0.0394502
0.118859
0.237715
0.374501
0.509218
0.627238
0.720694
0.788375
0.832594
0.856655
0.863083
0.85514
0.841729
0.544
1.64047
1.69367
1.61427
1.56301
1.53812
0.171353
0.881933
1.3264
1.48954
1.58243
1.59591
1.50257
1.28564
2.24312
2.28469
2.07845
2.03313
2.04956
2.0085
0.120811
0.467437
0.934294
1.23629
1.41095
1.49493
1.53931
1.67037
2.41464
2.06772
2.07117
2.00973
1.99151
1.95485
1.9173
0.090913
0.233266
0.622956
0.988215
1.24086
1.39155
1.48358
1.59225
1.96046
2.23188
2.38102
1.96227
2.00875
1.99378
1.95626
1.92169
1.8755
1.84824
0.0836079
0.113467
0.387127
0.73879
1.0485
1.26516
1.41007
1.57593
1.7929
2.11122
2.20918
2.19345
2.05305
1.91609
1.92459
1.91769
1.88529
1.84923
1.80431
1.77818
0.0818778
0.0641311
0.219324
0.517722
0.843845
1.11387
1.3114
1.48581
1.69418
1.90948
2.01928
2.01512
1.94809
1.84544
1.84322
1.83776
1.81039
1.77428
1.73243
1.70613
0.0814685
0.0477922
0.115644
0.345343
0.644522
0.941737
1.18397
1.37992
1.57039
1.75423
1.8623
1.87988
1.83696
1.77088
1.76086
1.7541
1.72977
1.69491
1.65597
1.62992
0.0813676
0.0430623
0.0608989
0.214044
0.469278
0.761547
1.0333
1.25552
1.44488
1.61177
1.71932
1.75647
1.7348
1.69293
1.67828
1.66702
1.64394
1.6108
1.57434
1.54882
0.0813607
0.041752
0.0377067
0.122479
0.327943
0.588705
0.865201
1.11053
1.31037
1.47339
1.58416
1.63692
1.63559
1.60912
1.59096
1.57655
1.55379
1.52241
1.48809
1.46323
0.0814062
0.0413373
0.0296278
0.0656787
0.2148
0.43809
0.694507
0.949487
1.16332
1.33183
1.44955
1.51403
1.5286
1.51623
1.4988
1.48248
1.46015
1.43071
1.39843
1.37432
0.0814822
0.0411573
0.0271341
0.0364807
0.129556
0.312568
0.535786
0.780722
1.00416
1.18251
1.31011
1.38712
1.41808
1.41416
1.40045
1.3848
1.36403
1.33708
1.30703
1.28383
0.081575
0.041062
0.0263562
0.0244824
0.0712926
0.208108
0.397502
0.617727
0.83682
1.02369
1.16207
1.24969
1.29311
1.30223
1.29598
1.28427
1.26694
1.24345
1.21609
1.19404
0.0816763
0.0410147
0.0260477
0.0204731
0.0378831
0.127571
0.281173
0.469163
0.671097
0.856943
1.00361
1.10191
1.159
1.18204
1.18755
1.18291
1.17123
1.15237
1.12829
1.10768
0.0817815
0.0409991
0.025875
0.0191889
0.0217961
0.0691143
0.185773
0.342169
0.518082
0.690837
0.837279
0.945132
1.01822
1.05903
1.07838
1.08395
1.08023
1.06709
1.04681
1.02791
0.081888
0.0410033
0.0257562
0.0187634
0.0165377
0.0343899
0.110665
0.236444
0.384043
0.537325
0.677369
0.792879
0.882404
0.941843
0.976687
0.993893
0.998353
0.991454
0.975218
0.958152
0.0819924
0.041009
0.0256413
0.0184782
0.0149502
0.0183717
0.0571296
0.149456
0.272023
0.406725
0.541744
0.664566
0.764982
0.83941
0.888583
0.917509
0.930585
0.929683
0.91723
0.901888
0.0820622
0.0409276
0.025375
0.0179969
0.014028
0.012713
0.0253173
0.0813642
0.179834
0.302292
0.436181
0.565571
0.676099
0.762293
0.82328
0.861919
0.881992
0.885824
0.876304
0.862273
0.0818885
0.0405015
0.024715
0.017115
0.012894
0.0104594
0.011998
0.0394306
0.118832
0.237692
0.374469
0.50921
0.627248
0.720704
0.788417
0.832624
0.856658
0.863082
0.85514
0.841729
0.532579
1.57039
1.62471
1.5664
1.54358
1.52424
0.171067
0.881969
1.32598
1.48593
1.57825
1.5864
1.4726
1.14948
2.24296
2.28444
2.07803
2.03291
2.04935
2.00846
0.120476
0.467103
0.934601
1.23703
1.41168
1.49533
1.53658
1.62519
2.2816
2.06794
2.07129
2.00974
1.99162
1.95492
1.91738
0.0908797
0.232936
0.623002
0.988619
1.24126
1.39201
1.48425
1.59263
1.92151
2.24315
2.3423
1.95825
2.00897
1.99398
1.95643
1.92184
1.87563
1.84834
0.0836006
0.113289
0.387174
0.739091
1.04889
1.26548
1.41054
1.57677
1.79297
2.09775
2.18841
2.17306
2.05035
1.91401
1.92492
1.91787
1.88544
1.84936
1.80442
1.77828
0.0818766
0.0640482
0.219302
0.517907
0.844184
1.11419
1.31159
1.48613
1.69453
1.90954
2.01849
2.01331
1.94655
1.84588
1.84349
1.83791
1.81052
1.77441
1.73253
1.70622
0.0814685
0.0477623
0.115598
0.345451
0.64475
0.942018
1.18431
1.38016
1.57054
1.75438
1.86232
1.87987
1.83724
1.77146
1.7614
1.7542
1.72989
1.69502
1.65607
1.63
0.0813679
0.0430529
0.0608558
0.214083
0.469417
0.761699
1.03349
1.25569
1.445
1.61184
1.71936
1.75651
1.73486
1.69302
1.6784
1.6671
1.64404
1.61089
1.57442
1.54889
0.0813611
0.0417488
0.0376828
0.122476
0.328022
0.588864
0.865408
1.11072
1.31051
1.47345
1.58418
1.63689
1.63528
1.60884
1.59109
1.57662
1.55387
1.52249
1.48816
1.46329
0.0814067
0.0413358
0.0296183
0.0656569
0.214827
0.438199
0.694623
0.949636
1.16345
1.33191
1.44957
1.51435
1.52908
1.51633
1.49888
1.48255
1.46021
1.43077
1.39848
1.37437
0.0814828
0.0411563
0.027131
0.0364621
0.129552
0.312578
0.53582
0.780822
1.00425
1.18258
1.31015
1.38707
1.41765
1.41426
1.40053
1.38486
1.36407
1.33713
1.30707
1.28387
0.0815756
0.0410612
0.0263552
0.0244733
0.0712741
0.208144
0.39747
0.617674
0.836882
1.02374
1.16211
1.24972
1.29321
1.30233
1.29606
1.28432
1.26698
1.24348
1.21612
1.19406
0.0816769
0.0410142
0.0260473
0.0204692
0.0378538
0.127541
0.281224
0.469196
0.671116
0.856964
1.00363
1.10191
1.15903
1.18211
1.1876
1.18295
1.17125
1.15239
1.12831
1.1077
0.0817821
0.0409988
0.0258747
0.0191886
0.0217973
0.0691259
0.185786
0.342173
0.518062
0.69082
0.837261
0.945097
1.01823
1.05907
1.07861
1.08413
1.08024
1.0671
1.04682
1.02792
0.0818886
0.0410031
0.025756
0.0187633
0.0165371
0.0343902
0.110668
0.23644
0.384025
0.537301
0.677327
0.792817
0.882406
0.941872
0.976676
0.993881
0.998363
0.991461
0.975224
0.958158
0.081993
0.041009
0.0256412
0.0184782
0.0149501
0.0183713
0.0571281
0.149447
0.272003
0.406671
0.541679
0.664525
0.764975
0.839417
0.888578
0.917515
0.930595
0.929686
0.917233
0.901891
0.0820629
0.0409276
0.025375
0.0179969
0.014028
0.0127125
0.0253154
0.081354
0.179802
0.302278
0.436169
0.565533
0.676089
0.76229
0.823271
0.861923
0.881999
0.885825
0.876305
0.862274
0.081889
0.0405013
0.0247147
0.0171149
0.0128939
0.0104592
0.0119973
0.0394258
0.118829
0.237696
0.374468
0.509204
0.627253
0.720708
0.788427
0.832635
0.856661
0.863082
0.85514
0.841729
0.525571
1.53453
1.5906
1.55165
1.59205
1.57037
0.170641
0.881201
1.32453
1.48105
1.57252
1.57643
1.44863
1.09542
2.24314
2.28429
2.07785
2.03277
2.04921
2.00838
0.120117
0.466761
0.934864
1.23761
1.4122
1.49543
1.53365
1.58397
2.24078
2.06735
2.07135
2.00971
1.99166
1.95493
1.91742
0.0908362
0.232546
0.622938
0.988876
1.24154
1.39234
1.48451
1.59053
1.89488
2.32173
2.31369
1.95376
2.00894
1.9941
1.95651
1.92193
1.87571
1.84841
0.083592
0.11309
0.387162
0.739294
1.04917
1.26572
1.41091
1.57744
1.79115
2.0848
2.17263
2.15562
2.04755
1.9119
1.92507
1.91801
1.88555
1.84946
1.80451
1.77835
0.0818751
0.0639592
0.21925
0.518027
0.844438
1.11443
1.31174
1.48639
1.69476
1.90919
2.01711
2.01178
1.94513
1.84613
1.84367
1.83802
1.81063
1.77451
1.73262
1.7063
0.0814685
0.0477318
0.115538
0.345525
0.644921
0.942234
1.18459
1.38035
1.57064
1.75448
1.86228
1.87994
1.83738
1.77192
1.76177
1.75429
1.72998
1.69511
1.65615
1.63008
0.0813682
0.0430436
0.0608065
0.214101
0.469517
0.761806
1.03365
1.25582
1.4451
1.61191
1.71941
1.75659
1.7349
1.69309
1.67849
1.66717
1.64412
1.61097
1.5745
1.54897
0.0813615
0.0417458
0.0376572
0.122462
0.328079
0.588986
0.865586
1.11088
1.31063
1.47352
1.58421
1.6369
1.63508
1.60863
1.59116
1.57668
1.55394
1.52255
1.48823
1.46335
0.081407
0.0413345
0.0296086
0.0656309
0.214845
0.438286
0.694726
0.949764
1.16357
1.33198
1.4496
1.51463
1.52943
1.51637
1.49893
1.4826
1.46026
1.43082
1.39853
1.37442
0.0814832
0.0411555
0.0271279
0.0364422
0.129543
0.312583
0.535847
0.780906
1.00434
1.18265
1.3102
1.3871
1.41735
1.4143
1.40058
1.3849
1.36411
1.33717
1.30711
1.28391
0.0815761
0.0410607
0.0263541
0.0244637
0.0712527
0.208169
0.397435
0.617629
0.836927
1.02379
1.16215
1.24975
1.29326
1.30236
1.29609
1.28435
1.26701
1.24351
1.21615
1.19409
0.0816774
0.0410137
0.026047
0.0204652
0.0378237
0.12751
0.281266
0.469219
0.671124
0.856978
1.00366
1.10191
1.15907
1.18213
1.1876
1.18297
1.17127
1.15241
1.12833
1.10771
0.0817826
0.0409984
0.0258745
0.0191883
0.0217977
0.0691344
0.185796
0.342172
0.51804
0.690801
0.83725
0.945076
1.01824
1.05907
1.07872
1.08423
1.08025
1.06711
1.04683
1.02793
0.0818892
0.0410028
0.0257559
0.0187632
0.0165363
0.0343895
0.110669
0.236432
0.384003
0.537274
0.67729
0.79277
0.882399
0.941861
0.976634
0.99386
0.998371
0.991468
0.975231
0.958164
0.0819935
0.0410088
0.0256412
0.0184782
0.01495
0.0183705
0.0571253
0.149437
0.271983
0.406618
0.541621
0.664492
0.764962
0.839403
0.888538
0.917501
0.930601
0.92969
0.917236
0.901894
0.0820634
0.0409276
0.0253749
0.0179969
0.0140279
0.012712
0.0253126
0.081343
0.179771
0.302261
0.436154
0.565503
0.676078
0.762279
0.823246
0.861916
0.882004
0.885827
0.876306
0.862274
0.0818894
0.0405011
0.0247146
0.0171148
0.0128938
0.0104591
0.0119964
0.0394209
0.118825
0.237698
0.374465
0.509198
0.627256
0.720708
0.788427
0.832641
0.856664
0.863083
0.855141
0.841729
0.521593
1.5273
1.58527
1.55992
1.65073
1.62522
0.170165
0.879739
1.32222
1.47557
1.56642
1.56727
1.43035
1.09502
2.24369
2.28433
2.07783
2.03265
2.04912
2.00832
0.119755
0.466423
0.935075
1.23804
1.41254
1.49523
1.53051
1.55106
2.24601
2.06612
2.07137
2.00967
1.99167
1.95491
1.91743
0.0907835
0.232089
0.622746
0.989002
1.24171
1.39257
1.48443
1.58657
1.88249
2.40294
2.30477
1.9493
2.00873
1.99416
1.95656
1.92199
1.87575
1.84845
0.0835815
0.112856
0.387049
0.739364
1.04933
1.2659
1.4112
1.57789
1.7883
2.07421
2.16301
2.14089
2.04456
1.90964
1.92508
1.91809
1.88561
1.84953
1.80457
1.77841
0.0818731
0.0638591
0.219142
0.518052
0.844576
1.11458
1.31186
1.48662
1.69485
1.90848
2.01531
2.01
1.94365
1.8461
1.84379
1.8381
1.8107
1.77457
1.73268
1.70636
0.0814684
0.0476982
0.11545
0.345539
0.645004
0.942362
1.18479
1.3805
1.5707
1.75448
1.8621
1.87993
1.83743
1.77226
1.76201
1.75436
1.73005
1.69518
1.65621
1.63014
0.0813684
0.0430339
0.0607465
0.214086
0.469558
0.76184
1.03376
1.25591
1.44515
1.61193
1.71944
1.75668
1.73499
1.69318
1.67856
1.66722
1.64418
1.61103
1.57456
1.54902
0.0813617
0.041743
0.0376282
0.12243
0.328097
0.589032
0.865708
1.11098
1.31071
1.47355
1.58422
1.63693
1.63499
1.6085
1.59121
1.57672
1.55399
1.52261
1.48828
1.4634
0.0814074
0.0413335
0.029598
0.0655966
0.214837
0.438288
0.694793
0.949855
1.16365
1.33202
1.44962
1.51486
1.52969
1.51639
1.49898
1.48264
1.46031
1.43086
1.39857
1.37446
0.0814836
0.0411549
0.0271247
0.0364194
0.129523
0.312556
0.535847
0.780958
1.0044
1.1827
1.31023
1.38712
1.41715
1.41431
1.40062
1.38493
1.36414
1.3372
1.30715
1.28394
0.0815765
0.0410603
0.0263532
0.0244534
0.0712266
0.20818
0.397388
0.617572
0.836951
1.02382
1.16218
1.24978
1.29328
1.30239
1.29612
1.28437
1.26703
1.24354
1.21617
1.19411
0.0816778
0.0410135
0.0260467
0.020461
0.037792
0.127475
0.281291
0.469225
0.671123
0.856983
1.00367
1.10191
1.15909
1.18213
1.1876
1.18299
1.17129
1.15243
1.12834
1.10773
0.0817831
0.0409983
0.0258743
0.019188
0.0217971
0.0691388
0.185802
0.342164
0.518011
0.690775
0.837229
0.945047
1.01824
1.05906
1.0788
1.08431
1.08026
1.06712
1.04684
1.02794
0.0818896
0.0410027
0.0257557
0.0187631
0.0165353
0.0343874
0.110666
0.236421
0.383976
0.53724
0.677247
0.79272
0.882383
0.941846
0.976602
0.993847
0.998376
0.991474
0.975237
0.95817
0.081994
0.0410088
0.0256411
0.0184782
0.0149499
0.0183694
0.0571213
0.149424
0.271959
0.406564
0.541561
0.664451
0.764945
0.839388
0.888498
0.917486
0.930606
0.929694
0.917239
0.901896
0.082064
0.0409277
0.0253749
0.0179968
0.0140279
0.0127113
0.0253094
0.0813303
0.17974
0.302242
0.436136
0.56547
0.676065
0.762268
0.823221
0.861907
0.882007
0.885828
0.876307
0.862275
0.0818898
0.0405008
0.0247144
0.0171147
0.0128936
0.0104589
0.0119955
0.0394151
0.118819
0.237698
0.374461
0.50919
0.627257
0.720706
0.788424
0.832644
0.856667
0.863084
0.855142
0.841729
0.51975
1.5388
1.59891
1.58127
1.70796
1.67565
0.169675
0.87778
1.3194
1.47038
1.56078
1.5598
1.41752
1.13038
2.24426
2.28447
2.07789
2.03254
2.04906
2.00828
0.119404
0.466115
0.935266
1.23838
1.41274
1.49478
1.52723
1.52774
2.26756
2.06451
2.07137
2.00963
1.99166
1.95489
1.91744
0.0907258
0.231597
0.622483
0.989058
1.24183
1.39274
1.48408
1.58151
1.8804
2.47419
2.31098
1.94562
2.00837
1.99419
1.95659
1.92202
1.87578
1.84848
0.0835694
0.112594
0.386863
0.739342
1.04941
1.26604
1.41143
1.57809
1.78514
2.06665
2.15962
2.13041
2.04177
1.90739
1.92499
1.91814
1.88565
1.84957
1.8046
1.77844
0.0818708
0.0637484
0.218986
0.517997
0.844632
1.11468
1.31196
1.48684
1.69482
1.90751
2.01332
2.00803
1.94213
1.84584
1.84387
1.83816
1.81074
1.77462
1.73272
1.7064
0.0814681
0.047662
0.115336
0.345496
0.645015
0.94242
1.18494
1.38062
1.57074
1.75441
1.86181
1.87975
1.83734
1.7725
1.76219
1.75441
1.73009
1.69522
1.65625
1.63018
0.0813686
0.0430238
0.0606753
0.214036
0.469541
0.761815
1.03383
1.25597
1.44517
1.61193
1.71943
1.75676
1.73504
1.69326
1.67862
1.66725
1.64421
1.61107
1.5746
1.54906
0.081362
0.0417403
0.0375958
0.122379
0.32808
0.589032
0.865782
1.11105
1.31076
1.47355
1.58423
1.63696
1.63494
1.60841
1.59125
1.57675
1.55403
1.52264
1.48831
1.46344
0.0814077
0.0413325
0.0295867
0.0655541
0.214809
0.438261
0.694824
0.949909
1.1637
1.33204
1.44963
1.51503
1.52988
1.5164
1.49902
1.48266
1.46034
1.43089
1.3986
1.37449
0.081484
0.0411544
0.0271214
0.0363934
0.129491
0.312512
0.535823
0.780977
1.00443
1.18272
1.31025
1.38715
1.41701
1.41431
1.40065
1.38496
1.36417
1.33722
1.30717
1.28396
0.0815769
0.0410599
0.0263523
0.0244421
0.0711952
0.208176
0.397327
0.617503
0.836953
1.02383
1.16219
1.24979
1.29328
1.30241
1.29613
1.28438
1.26705
1.24355
1.21619
1.19413
0.0816782
0.0410131
0.0260464
0.0204567
0.0377585
0.127435
0.281301
0.469215
0.671104
0.856972
1.00366
1.1019
1.15911
1.18214
1.18761
1.18301
1.1713
1.15244
1.12835
1.10774
0.0817835
0.040998
0.0258741
0.0191876
0.0217956
0.0691387
0.185802
0.342146
0.517972
0.690738
0.837199
0.945012
1.01824
1.05905
1.07886
1.08437
1.08027
1.06713
1.04685
1.02794
0.0818901
0.0410026
0.0257557
0.018763
0.0165342
0.0343844
0.110662
0.236405
0.383942
0.537198
0.677198
0.792666
0.882366
0.941828
0.976581
0.993838
0.99838
0.991478
0.975242
0.958174
0.0819944
0.0410088
0.0256411
0.0184782
0.0149497
0.0183679
0.0571161
0.14941
0.271931
0.406508
0.541501
0.664404
0.764916
0.83937
0.888462
0.917472
0.930609
0.929697
0.917241
0.901898
0.0820645
0.0409277
0.0253748
0.0179968
0.0140278
0.0127106
0.0253059
0.0813174
0.179708
0.302218
0.436113
0.565437
0.676049
0.762254
0.823196
0.861899
0.88201
0.88583
0.876309
0.862276
0.0818902
0.0405007
0.0247142
0.0171146
0.0128935
0.0104587
0.0119944
0.0394088
0.118812
0.237697
0.374454
0.50918
0.627258
0.720701
0.788417
0.832646
0.85667
0.863085
0.855142
0.841729
0.519223
1.55979
1.62324
1.60887
1.75946
1.71906
0.169188
0.875514
1.31641
1.46606
1.55613
1.55444
1.41015
1.18728
2.24458
2.28461
2.07796
2.03246
2.04901
2.00825
0.119069
0.465847
0.935437
1.23862
1.41282
1.49413
1.524
1.51419
2.2939
2.06278
2.07135
2.00961
1.99165
1.95488
1.91743
0.0906656
0.231098
0.622189
0.989084
1.24194
1.39284
1.48351
1.57598
1.88465
2.53195
2.32557
1.94324
2.00793
1.99419
1.9566
1.92203
1.87579
1.84849
0.0835565
0.112319
0.386635
0.739272
1.04945
1.26614
1.41159
1.57801
1.78217
2.06229
2.16155
2.12494
2.03955
1.90528
1.92481
1.91817
1.88567
1.84959
1.80463
1.77846
0.0818682
0.0636314
0.218795
0.517886
0.844634
1.11472
1.31205
1.48703
1.69466
1.90638
2.01138
2.00594
1.94063
1.84543
1.8439
1.8382
1.81077
1.77464
1.73275
1.70642
0.0814677
0.047624
0.115203
0.345413
0.644982
0.942435
1.18504
1.38072
1.57077
1.75428
1.86143
1.87942
1.83715
1.77266
1.76232
1.75445
1.73011
1.69525
1.65628
1.63021
0.0813686
0.0430133
0.0605959
0.213958
0.469489
0.761771
1.03386
1.256
1.44518
1.61192
1.71939
1.7568
1.73507
1.69333
1.67867
1.66727
1.64424
1.6111
1.57462
1.54909
0.0813621
0.0417376
0.0375603
0.122313
0.328038
0.589015
0.865812
1.11109
1.31078
1.47354
1.58421
1.63698
1.6349
1.60834
1.59127
1.57676
1.55405
1.52267
1.48833
1.46346
0.081408
0.0413316
0.0295746
0.0655038
0.214766
0.438256
0.694818
0.949933
1.16373
1.33204
1.44962
1.51517
1.53
1.5164
1.49904
1.48268
1.46036
1.43091
1.39862
1.37451
0.0814843
0.041154
0.027118
0.0363647
0.129449
0.312467
0.535776
0.780971
1.00444
1.18272
1.31024
1.38717
1.4169
1.41431
1.40066
1.38497
1.36419
1.33724
1.30718
1.28398
0.0815772
0.0410597
0.0263513
0.0244301
0.0711589
0.208158
0.397258
0.617425
0.836936
1.02383
1.16219
1.24979
1.29327
1.30241
1.29615
1.2844
1.26706
1.24357
1.2162
1.19414
0.0816786
0.041013
0.0260461
0.0204523
0.0377238
0.127391
0.281298
0.469189
0.671075
0.85695
1.00365
1.10188
1.15911
1.18214
1.18762
1.18303
1.17131
1.15245
1.12836
1.10775
0.0817839
0.0409978
0.025874
0.0191872
0.021793
0.0691353
0.185796
0.342123
0.51793
0.690696
0.837162
0.944971
1.01823
1.05904
1.07891
1.08441
1.08028
1.06713
1.04685
1.02795
0.0818904
0.0410025
0.0257556
0.0187629
0.016533
0.0343802
0.110653
0.236384
0.383905
0.537151
0.677145
0.792611
0.882358
0.941808
0.976564
0.993832
0.998383
0.991482
0.975245
0.958176
0.0819949
0.0410087
0.0256411
0.0184782
0.0149495
0.0183658
0.0571092
0.149392
0.2719
0.406452
0.541441
0.664355
0.764899
0.839349
0.888423
0.917459
0.930611
0.929698
0.917243
0.901899
0.0820649
0.0409275
0.0253748
0.0179968
0.0140277
0.0127099
0.0253019
0.0813031
0.179676
0.302192
0.436087
0.565402
0.67603
0.762237
0.823165
0.861893
0.882012
0.885831
0.876309
0.862276
0.0818905
0.0405004
0.0247141
0.0171145
0.0128934
0.0104585
0.0119933
0.0394025
0.118804
0.237693
0.374447
0.509168
0.627253
0.720692
0.7884
0.832643
0.856672
0.863086
0.855142
0.841729
0.519582
1.58593
1.65207
1.63821
1.80343
1.75503
0.16871
0.873114
1.31357
1.4629
1.55276
1.55131
1.40827
1.25421
2.24457
2.28471
2.07804
2.0324
2.04897
2.00823
0.118753
0.46561
0.93558
1.23877
1.41277
1.49334
1.52105
1.50983
2.32063
2.0611
2.07132
2.0096
1.99164
1.95487
1.91743
0.0906052
0.230605
0.621889
0.989094
1.24203
1.39289
1.48278
1.57053
1.89225
2.57685
2.34318
1.94245
2.00747
1.99417
1.95661
1.92204
1.87579
1.8485
0.0835433
0.112039
0.386379
0.739166
1.04946
1.26623
1.41169
1.57768
1.77968
2.06094
2.16749
2.12428
2.03821
1.90343
1.92459
1.91818
1.88568
1.8496
1.80464
1.77847
0.0818655
0.0635112
0.218585
0.517746
0.844608
1.11475
1.31213
1.48719
1.69441
1.90521
2.00965
2.0039
1.93923
1.84492
1.8439
1.83823
1.81078
1.77466
1.73276
1.70644
0.0814672
0.0475851
0.115058
0.345303
0.644917
0.942426
1.18513
1.38083
1.57078
1.75409
1.86099
1.87898
1.83688
1.77274
1.76241
1.75448
1.73013
1.69527
1.6563
1.63023
0.0813686
0.0430026
0.0605105
0.213862
0.469411
0.761704
1.03388
1.25603
1.44519
1.61189
1.71933
1.7568
1.73509
1.69339
1.67871
1.66729
1.64425
1.61112
1.57464
1.5491
0.0813623
0.0417349
0.0375229
0.122236
0.327977
0.588973
0.865819
1.11111
1.31079
1.47353
1.5842
1.63701
1.63488
1.6083
1.59128
1.57677
1.55406
1.52268
1.48835
1.46348
0.0814082
0.041331
0.029562
0.065449
0.214712
0.438229
0.694795
0.949939
1.16374
1.33203
1.44961
1.51527
1.53008
1.51639
1.49906
1.48269
1.46037
1.43092
1.39864
1.37452
0.0814845
0.0411536
0.0271144
0.0363339
0.129399
0.312412
0.535719
0.780947
1.00443
1.18272
1.31024
1.38718
1.41682
1.41429
1.40068
1.38498
1.3642
1.33725
1.30719
1.28399
0.0815775
0.0410593
0.0263504
0.0244175
0.0711183
0.20813
0.397179
0.617339
0.83691
1.02381
1.16218
1.24979
1.29324
1.30241
1.29615
1.2844
1.26707
1.24357
1.21621
1.19415
0.0816789
0.0410128
0.0260458
0.0204476
0.0376876
0.127343
0.281283
0.469154
0.671037
0.856919
1.00363
1.10186
1.1591
1.18213
1.18763
1.18304
1.17132
1.15246
1.12837
1.10775
0.0817843
0.0409978
0.0258739
0.0191868
0.0217896
0.0691283
0.185786
0.342092
0.517881
0.690647
0.837118
0.944926
1.01822
1.05902
1.07895
1.08444
1.08029
1.06714
1.04686
1.02795
0.0818908
0.0410025
0.0257555
0.0187628
0.0165316
0.0343747
0.110643
0.23636
0.383862
0.537099
0.677089
0.792554
0.882344
0.941787
0.97655
0.993828
0.998385
0.991484
0.975247
0.958179
0.0819952
0.0410088
0.0256411
0.0184782
0.0149493
0.0183636
0.0571012
0.149373
0.271865
0.406394
0.54138
0.664304
0.764884
0.839327
0.888389
0.917447
0.930611
0.929701
0.917244
0.9019
0.0820653
0.0409276
0.0253748
0.0179968
0.0140277
0.012709
0.0252972
0.0812873
0.179643
0.302165
0.436059
0.565367
0.676013
0.76222
0.823137
0.861887
0.882013
0.885833
0.87631
0.862277
0.0818908
0.0405003
0.024714
0.0171144
0.0128933
0.0104582
0.011992
0.0393959
0.118795
0.237688
0.374438
0.509155
0.627248
0.720682
0.788383
0.83264
0.856674
0.863087
0.855143
0.841729
0.520532
1.61389
1.6812
1.66644
1.83968
1.78422
0.168243
0.870741
1.31112
1.46099
1.55077
1.5503
1.41158
1.32282
2.24427
2.28477
2.07811
2.03236
2.04895
2.00823
0.118454
0.465395
0.935683
1.23884
1.41263
1.49249
1.5185
1.51335
2.34584
2.05961
2.07127
2.0096
1.99163
1.95487
1.91742
0.0905452
0.230121
0.621586
0.989091
1.24211
1.39289
1.48193
1.56563
1.90133
2.61104
2.3607
1.94333
2.00702
1.99414
1.95662
1.92205
1.87579
1.8485
0.08353
0.111758
0.386109
0.739049
1.04947
1.26632
1.41173
1.57715
1.77784
2.06217
2.17608
2.12767
2.03799
1.90195
1.92432
1.91817
1.88569
1.84961
1.80465
1.77848
0.0818627
0.06339
0.218364
0.517585
0.84456
1.11478
1.31221
1.48729
1.69409
1.90411
2.00829
2.0021
1.93798
1.84436
1.84386
1.83825
1.81079
1.77467
1.73277
1.70645
0.0814668
0.0475454
0.114905
0.345174
0.644826
0.942398
1.1852
1.38093
1.57078
1.75387
1.86053
1.87845
1.83656
1.77275
1.76247
1.75451
1.73014
1.69528
1.6563
1.63023
0.0813686
0.0429919
0.060422
0.213754
0.469311
0.761609
1.03388
1.25606
1.44519
1.61186
1.71924
1.75676
1.73508
1.69345
1.67874
1.6673
1.64426
1.61113
1.57465
1.54911
0.0813625
0.0417322
0.0374846
0.122152
0.327898
0.588893
0.865814
1.11112
1.3108
1.47352
1.58417
1.63705
1.63487
1.60828
1.59129
1.57678
1.55407
1.52269
1.48836
1.46349
0.0814084
0.0413301
0.0295491
0.0653902
0.214643
0.43814
0.694762
0.949934
1.16375
1.33202
1.44959
1.51536
1.53014
1.51638
1.49906
1.48269
1.46038
1.43093
1.39864
1.37453
0.0814848
0.0411533
0.0271109
0.0363016
0.129343
0.312335
0.535651
0.780912
1.00442
1.1827
1.31022
1.38718
1.41675
1.41427
1.40068
1.38498
1.3642
1.33725
1.3072
1.28399
0.0815778
0.0410592
0.0263495
0.0244045
0.0710757
0.208095
0.397097
0.617251
0.836873
1.02379
1.16216
1.24979
1.29322
1.3024
1.29615
1.28441
1.26707
1.24358
1.21621
1.19415
0.0816792
0.0410128
0.0260456
0.020443
0.0376506
0.127294
0.281259
0.469109
0.670991
0.856881
1.0036
1.10183
1.15909
1.18212
1.18763
1.18306
1.17132
1.15246
1.12837
1.10776
0.0817846
0.0409978
0.0258738
0.0191863
0.0217858
0.0691196
0.185772
0.342057
0.517826
0.690595
0.837071
0.944879
1.0182
1.05901
1.07896
1.08446
1.0803
1.06714
1.04686
1.02796
0.0818911
0.0410025
0.0257555
0.0187627
0.0165302
0.0343684
0.11063
0.236333
0.383815
0.537045
0.67703
0.792496
0.882318
0.941767
0.976537
0.993824
0.998386
0.991486
0.975248
0.95818
0.0819956
0.0410088
0.0256411
0.0184782
0.0149491
0.0183611
0.057092
0.149352
0.271831
0.406337
0.541318
0.664253
0.764862
0.839309
0.888363
0.917434
0.930611
0.929701
0.917245
0.901901
0.0820656
0.0409277
0.0253748
0.0179968
0.0140276
0.0127081
0.0252922
0.0812715
0.179611
0.302134
0.436028
0.565332
0.675997
0.762208
0.823118
0.861876
0.882014
0.885833
0.87631
0.862277
0.0818911
0.0405003
0.0247138
0.0171143
0.0128932
0.010458
0.0119907
0.0393885
0.118785
0.237681
0.374427
0.509139
0.627241
0.720677
0.788375
0.832637
0.856675
0.863087
0.855143
0.841729
0.521869
1.64134
1.70821
1.69195
1.86884
1.80752
0.167791
0.868544
1.30923
1.46015
1.55014
1.55113
1.41951
1.38813
2.24378
2.2848
2.07816
2.03233
2.04894
2.00822
0.118172
0.465192
0.93575
1.23885
1.41244
1.49168
1.51641
1.52294
2.36856
2.0584
2.07121
2.00961
1.99162
1.95487
1.91742
0.0904859
0.229655
0.621293
0.989083
1.24217
1.39283
1.48104
1.56162
1.91088
2.63678
2.37675
1.9458
2.00665
1.9941
1.95662
1.92205
1.87579
1.8485
0.0835166
0.111476
0.385834
0.738923
1.04947
1.26639
1.41171
1.57647
1.77671
2.06545
2.18583
2.13413
2.03889
1.90093
1.92406
1.91816
1.88569
1.84961
1.80465
1.77848
0.0818598
0.0632687
0.218137
0.517413
0.844502
1.1148
1.31228
1.48734
1.69374
1.90318
2.00737
2.00066
1.93699
1.84381
1.84378
1.83826
1.81079
1.77467
1.73278
1.70645
0.0814663
0.047506
0.114748
0.345035
0.64473
0.942362
1.18526
1.38102
1.57077
1.75362
1.86007
1.8779
1.83622
1.77272
1.76249
1.75452
1.73014
1.69528
1.65631
1.63024
0.0813687
0.0429812
0.060331
0.213637
0.469204
0.761519
1.03388
1.25609
1.4452
1.61181
1.71913
1.75668
1.73505
1.69349
1.67876
1.66731
1.64426
1.61113
1.57465
1.54912
0.0813626
0.0417297
0.0374451
0.122062
0.327812
0.58882
0.865792
1.11112
1.3108
1.4735
1.58415
1.63708
1.63486
1.60827
1.5913
1.57678
1.55407
1.52269
1.48836
1.46349
0.0814086
0.0413296
0.0295361
0.0653285
0.214571
0.43809
0.694713
0.949916
1.16374
1.332
1.44957
1.51542
1.53018
1.51637
1.49907
1.48269
1.46038
1.43093
1.39865
1.37453
0.081485
0.0411532
0.0271073
0.0362684
0.129284
0.312266
0.535576
0.780868
1.0044
1.18268
1.3102
1.38717
1.4167
1.41425
1.40068
1.38498
1.36421
1.33726
1.3072
1.28399
0.0815781
0.0410592
0.0263486
0.0243911
0.0710304
0.208054
0.397011
0.61716
0.836828
1.02376
1.16214
1.24978
1.29319
1.30238
1.29615
1.28441
1.26708
1.24358
1.21622
1.19416
0.0816795
0.0410127
0.0260454
0.0204383
0.0376132
0.127242
0.28123
0.469056
0.670939
0.856838
1.00356
1.1018
1.15908
1.1821
1.18763
1.18306
1.17133
1.15246
1.12837
1.10776
0.0817849
0.0409978
0.0258737
0.0191858
0.0217812
0.0691072
0.185755
0.342019
0.51777
0.690538
0.83702
0.944829
1.01818
1.05899
1.07897
1.08448
1.0803
1.06714
1.04686
1.02796
0.0818915
0.0410025
0.0257554
0.0187626
0.0165287
0.0343618
0.110617
0.236303
0.383766
0.536986
0.676969
0.792437
0.882292
0.941745
0.976525
0.99382
0.998386
0.991486
0.975249
0.95818
0.0819959
0.0410089
0.0256411
0.0184782
0.0149488
0.0183584
0.057082
0.14933
0.271793
0.406279
0.541257
0.664202
0.764839
0.83929
0.888341
0.917421
0.93061
0.929701
0.917245
0.901901
0.082066
0.0409278
0.0253748
0.0179968
0.0140275
0.0127072
0.0252871
0.0812546
0.179577
0.302103
0.435995
0.565296
0.675981
0.762195
0.823099
0.861865
0.882013
0.885834
0.87631
0.862277
0.0818913
0.0405002
0.0247136
0.0171142
0.0128931
0.0104578
0.0119893
0.0393813
0.118774
0.237673
0.374415
0.509123
0.627233
0.720671
0.788365
0.832633
0.856675
0.863088
0.855143
0.841729
0.523451
1.66683
1.73192
1.714
1.8919
1.82586
0.167357
0.866648
1.30804
1.46032
1.55074
1.55351
1.43049
1.44767
2.24319
2.28479
2.07819
2.03232
2.04893
2.00822
0.117905
0.464996
0.935786
1.23883
1.41223
1.49097
1.51496
1.53645
2.38846
2.0575
2.07115
2.00963
1.99162
1.95487
1.91741
0.0904279
0.229203
0.621005
0.989069
1.24222
1.39275
1.48017
1.55871
1.92039
2.65606
2.39091
1.94967
2.00638
1.99406
1.95662
1.92205
1.87579
1.8485
0.0835034
0.111198
0.38555
0.738788
1.04947
1.26644
1.41163
1.57572
1.77626
2.07022
2.19594
2.14264
2.04064
1.90041
1.9238
1.91814
1.88569
1.84961
1.80465
1.77848
0.081857
0.0631481
0.217903
0.51723
0.844437
1.1148
1.31234
1.48733
1.69341
1.9025
2.00693
1.9997
1.93627
1.84332
1.84369
1.83826
1.81079
1.77467