/*--------------------------------*- C++ -*----------------------------------*\
  =========                 |
  \\      /  F ield         | OpenFOAM: The Open Source CFD Toolbox
   \\    /   O peration     | Website:  https://openfoam.org
    \\  /    A nd           | Version:  10
     \\/     M anipulation  |
\*---------------------------------------------------------------------------*/
FoamFile
{
    format      ascii;
    class       volScalarField;
    location    "2000";
    object      nut;
}
// * * * * * * * * * * * * * * * * * * * * * * * * * * * * * * * * * * * * * //

dimensions      [0 2 -1 0 0 0 0];

internalField   nonuniform List<scalar> 
52338
(
0.264661
0.503358
0.553419
0.478976
0.347719
0.272662
0.197061
0.85909
1.38414
1.5281
1.67359
1.61566
1.11692
0.306214
0.391917
0.593219
0.859391
1.35878
1.19988
1.73824
0.185439
0.872796
1.48675
2.0713
2.50767
2.65516
2.15278
1.17864
0.193378
2.02169
2.49769
2.79875
3.49869
3.14699
3.77167
0.140374
0.553808
1.32051
1.99776
2.65679
3.08836
3.02984
2.16671
1.04607
0.374037
0.916152
1.9123
3.59474
4.2622
4.67035
4.85831
5.01306
5.10858
0.128015
0.308405
1.14199
1.78496
2.51267
3.14359
3.43571
2.98831
2.31373
1.89324
1.71432
1.9784
2.49082
3.56601
4.58229
5.27572
5.73757
5.99839
6.16988
6.2755
0.124582
0.184732
0.770623
1.56329
2.27401
2.99005
3.52319
3.7021
3.45105
3.35654
3.47478
3.69203
4.08214
4.7145
5.48665
6.14418
6.62664
6.93701
7.13913
7.26143
0.123517
0.139541
0.463336
1.3866
2.03056
2.75092
3.40708
3.89925
4.11072
4.18091
4.42423
4.77628
5.13805
5.62468
6.26656
6.86996
7.35364
7.69499
7.92836
8.07122
0.123079
0.125617
0.264718
0.994074
1.82082
2.49852
3.18953
3.84623
4.34479
4.65894
5.03741
5.4972
5.9013
6.33032
6.8902
7.45469
7.92967
8.29272
8.55418
8.71834
0.122838
0.121449
0.169786
0.643436
1.63225
2.26627
2.92335
3.63756
4.30793
4.83574
5.34181
5.86594
6.42446
6.85519
7.37075
7.90363
8.37038
8.74842
9.03507
9.21993
0.122689
0.119977
0.134537
0.378877
1.21603
2.07734
2.64592
3.3391
4.08517
4.75817
5.37391
5.95053
6.58719
7.14569
7.68476
8.21493
8.68423
9.0793
9.38961
9.59423
0.122593
0.119253
0.123181
0.222642
0.825571
1.82242
2.38256
3.01118
3.74439
4.48945
5.19127
5.78884
6.50106
7.17673
7.81788
8.40621
8.88795
9.30279
9.63614
9.85954
0.122531
0.118788
0.119488
0.152896
0.503074
1.36831
2.13827
2.70234
3.35384
4.09451
4.84217
5.51379
6.28138
7.07372
7.87563
8.4963
8.99918
9.43679
9.79289
10.0339
0.12249
0.118456
0.117993
0.128553
0.287912
0.942759
1.87148
2.41784
2.98539
3.64825
4.39566
5.16542
6.02324
6.97607
7.92541
8.50639
9.03704
9.49971
9.87791
10.1351
0.122464
0.118206
0.117114
0.120522
0.172576
0.57057
1.39244
2.16372
2.67968
3.25691
3.97146
4.83065
5.84235
6.97533
7.83721
8.45971
9.02137
9.51014
9.90912
10.1806
0.122449
0.118012
0.116488
0.117891
0.132878
0.311416
0.93612
1.78972
2.42291
3.00026
3.73598
4.70471
5.85734
6.97445
7.71119
8.37659
8.97267
9.48666
9.90411
10.1875
0.12244
0.117832
0.115901
0.116298
0.120918
0.176659
0.546494
1.28173
2.12349
2.87291
3.76097
4.87875
5.88239
6.7793
7.57616
8.28523
8.91173
9.44725
9.87977
10.1724
0.122399
0.117494
0.114878
0.114006
0.114974
0.127205
0.274568
0.809468
1.62046
2.55311
3.56989
4.63122
5.66924
6.62104
7.46548
8.20835
8.85723
9.40819
9.85145
10.1504
0.122121
0.11653
0.112738
0.110152
0.108565
0.109341
0.147049
0.480021
1.27649
2.28805
3.37579
4.48635
5.55564
6.53406
7.40322
8.16402
8.82418
9.38306
9.83204
10.1342
0.259426
0.57761
0.648375
0.607541
0.380289
0.3636
0.194811
0.883803
1.42315
1.71201
1.82664
1.76222
1.23435
0.365972
0.392197
0.592799
0.856972
1.3559
1.19715
1.73702
0.184796
0.884336
1.5166
2.10331
2.55164
2.7322
2.28501
1.2784
0.314024
2.01886
2.49379
2.79368
3.4937
3.14304
3.76992
0.140221
0.551548
1.332
2.00635
2.66882
3.11481
3.07139
2.35359
1.13985
0.462913
0.856727
2.49455
3.59584
4.25643
4.66664
4.85614
5.01059
5.10717
0.127977
0.306954
1.14044
1.7972
2.52768
3.16444
3.46907
3.09324
2.4105
2.06854
1.83824
2.04412
2.96864
3.60861
4.57922
5.27448
5.73599
5.99696
6.16859
6.27442
0.124573
0.184081
0.76876
1.57731
2.28747
3.00701
3.55
3.7214
3.51818
3.43534
3.5494
3.80506
4.1297
4.74105
5.48996
6.1442
6.62566
6.93605
7.13825
7.26064
0.123515
0.139328
0.461864
1.38514
2.0435
2.76862
3.43252
3.93086
4.13727
4.21434
4.46267
4.83052
5.16619
5.66573
6.28947
6.86618
7.35301
7.69436
7.92777
8.07067
0.123079
0.125559
0.263819
0.992514
1.83445
2.51171
3.20178
3.8687
4.37162
4.69453
5.07759
5.52661
5.92207
6.36173
6.91044
7.448
7.92956
8.29232
8.55379
8.71798
0.122837
0.121434
0.169393
0.642074
1.63082
2.28147
2.92879
3.64824
4.32663
4.86208
5.36989
5.87273
6.43197
6.86804
7.38469
7.89976
8.37014
8.74816
9.03483
9.2197
0.122689
0.119973
0.134407
0.377882
1.21457
2.09706
2.65208
3.34696
4.0972
4.77542
5.39286
5.95177
6.59488
7.18039
7.70606
8.2157
8.68412
9.07917
9.38947
9.5941
0.122593
0.119251
0.123144
0.222094
0.824267
1.81994
2.38311
3.01544
3.75247
4.50066
5.20337
5.83189
6.5457
7.17965
7.84199
8.40707
8.88793
9.30272
9.63608
9.85947
0.122531
0.118788
0.119478
0.152676
0.502054
1.36732
2.13571
2.70133
3.36149
4.1026
4.84894
5.53633
6.32027
7.07465
7.90096
8.4976
8.99928
9.43676
9.79286
10.0339
0.12249
0.118455
0.11799
0.128482
0.287206
0.941581
1.87066
2.41671
2.99189
3.65455
4.40148
5.16685
6.03275
6.97862
7.92956
8.50841
9.03733
9.49971
9.8779
10.1351
0.122464
0.118206
0.117113
0.120508
0.172343
0.569805
1.39161
2.16029
2.68439
3.26244
3.97857
4.83635
5.8546
6.98108
7.84033
8.46264
9.02184
9.51017
9.90912
10.1806
0.122449
0.118011
0.116488
0.117888
0.132797
0.310645
0.935475
1.78878
2.42676
3.00562
3.74426
4.71394
5.8716
6.97386
7.71334
8.37938
8.97312
9.48668
9.9041
10.1875
0.12244
0.117832
0.115901
0.116296
0.120902
0.176412
0.546076
1.28101
2.12259
2.87745
3.7667
4.88869
5.88227
6.77916
7.5781
8.28744
8.91206
9.44724
9.87977
10.1724
0.1224
0.117494
0.114877
0.114005
0.114971
0.127174
0.274366
0.808972
1.61974
2.55261
3.56935
4.63088
5.66933
6.62123
7.46701
8.2098
8.85742
9.40819
9.85145
10.1504
0.122121
0.11653
0.112737
0.110151
0.108562
0.109335
0.147001
0.479833
1.27632
2.28795
3.37569
4.48639
5.55577
6.53424
7.40393
8.16458
8.82424
9.38306
9.83203
10.1342
0.258724
0.578363
0.651868
0.627227
0.407057
0.388777
0.194689
0.883069
1.42463
1.72478
1.82298
1.75724
1.23522
0.377419
0.392219
0.592628
0.856256
1.35481
1.1961
1.73629
0.184364
0.884238
1.51507
2.10279
2.55248
2.73335
2.29674
1.2596
0.353196
2.0167
2.49115
2.79024
3.49125
3.14057
3.76867
0.140179
0.551012
1.33103
2.0064
2.6696
3.11465
3.07793
2.33274
1.12914
0.496781
0.855278
2.49541
3.59345
4.25323
4.6645
4.85443
5.00899
5.10589
0.127968
0.306565
1.14062
1.79653
2.52812
3.16239
3.47253
3.0992
2.40883
2.06622
1.84104
2.0477
2.978
3.61297
4.57683
5.273
5.73449
5.99561
6.16732
6.2733
0.124571
0.183877
0.768721
1.57726
2.28879
3.00703
3.55527
3.72529
3.51682
3.43606
3.56057
3.8122
4.13535
4.73583
5.48951
6.14331
6.62461
6.93504
7.1373
7.25976
0.123514
0.139254
0.461725
1.38547
2.04568
2.7686
3.43399
3.9314
4.13497
4.21114
4.46905
4.82942
5.1643
5.66285
6.28828
6.86342
7.35231
7.69365
7.9271
8.07003
0.123078
0.125537
0.263663
0.992661
1.8371
2.51373
3.20549
3.87203
4.36954
4.69015
5.07575
5.55019
5.92233
6.36282
6.9116
7.44625
7.92758
8.29187
8.55336
8.71756
0.122837
0.121428
0.1693
0.642067
1.63111
2.28491
2.93477
3.65356
4.32778
4.86213
5.37167
5.90066
6.43253
6.86955
7.38521
7.89886
8.36986
8.7479
9.03457
9.21945
0.122689
0.119971
0.13437
0.377778
1.21469
2.10237
2.65651
3.35138
4.10028
4.77868
5.3983
5.97043
6.62111
7.16924
7.7066
8.2157
8.68397
9.07902
9.38932
9.59394
0.122593
0.11925
0.123133
0.221995
0.824245
1.81998
2.38561
3.01901
3.75601
4.50479
5.20872
5.82659
6.55648
7.18527
7.85633
8.40717
8.88786
9.30265
9.636
9.85939
0.122531
0.118787
0.119475
0.152625
0.501942
1.36749
2.13882
2.70452
3.36498
4.10655
4.85309
5.53618
6.32072
7.07655
7.9152
8.4978
8.99925
9.43673
9.79283
10.0338
0.12249
0.118455
0.117989
0.128459
0.287006
0.941406
1.87089
2.42046
2.99507
3.65786
4.40446
5.17363
6.04393
6.97683
7.93013
8.50887
9.03736
9.4997
9.87789
10.1351
0.122464
0.118206
0.117113
0.120507
0.172354
0.569884
1.39168
2.16361
2.68718
3.26509
3.98022
4.84016
5.86243
6.97876
7.84141
8.46319
9.02198
9.51017
9.90912
10.1806
0.122449
0.118011
0.116487
0.117888
0.132793
0.310648
0.935488
1.78875
2.42941
3.00816
3.74541
4.7165
5.87794
6.97403
7.71365
8.37975
8.97323
9.48668
9.90411
10.1875
0.12244
0.117832
0.115901
0.116297
0.120902
0.176409
0.546061
1.28094
2.12247
2.88034
3.76812
4.89141
5.88224
6.77924
7.57833
8.28774
8.91214
9.44725
9.87977
10.1724
0.1224
0.117494
0.114877
0.114005
0.114971
0.12717
0.274346
0.808878
1.61952
2.55254
3.56928
4.63074
5.66929
6.62128
7.46717
8.21003
8.85748
9.40819
9.85146
10.1504
0.122121
0.116529
0.112737
0.11015
0.108562
0.109334
0.146993
0.479789
1.27631
2.28797
3.3757
4.4864
5.5558
6.53427
7.40406
8.16472
8.82426
9.38306
9.83203
10.1342
0.258934
0.583954
0.659982
0.645298
0.424423
0.409953
0.194429
0.884304
1.43044
1.7335
1.82082
1.75457
1.23704
0.391494
0.392277
0.59259
0.85609
1.35441
1.19571
1.73597
0.183901
0.88413
1.51426
2.10262
2.55235
2.73493
2.30753
1.25034
0.361657
2.01513
2.49011
2.78879
3.4901
3.13925
3.76794
0.140121
0.550366
1.33019
2.00656
2.66985
3.11524
3.0851
2.33375
1.12494
0.504099
0.83989
2.49702
3.5916
4.25185
4.66351
4.85336
5.00806
5.10501
0.127955
0.306122
1.14069
1.79591
2.52787
3.16165
3.47199
3.09892
2.41489
2.06539
1.846
2.04276
2.98733
3.61801
4.57481
5.2719
5.73345
5.99461
6.16636
6.27242
0.124569
0.183655
0.768596
1.57656
2.28848
3.00657
3.55405
3.7241
3.51427
3.43709
3.56229
3.81845
4.14223
4.732
5.48845
6.14254
6.62379
6.93422
7.1365
7.259
0.123514
0.139176
0.461536
1.38571
2.04515
2.76819
3.43364
3.93017
4.13446
4.21031
4.46757
4.82891
5.16379
5.66013
6.28636
6.86336
7.35171
7.69304
7.92651
8.06947
0.123078
0.125514
0.26348
0.992733
1.83643
2.5131
3.20475
3.87117
4.36844
4.68756
5.0714
5.54278
5.92293
6.36353
6.91191
7.44666
7.92725
8.29146
8.55297
8.71718
0.122837
0.121422
0.169199
0.642011
1.63132
2.28453
2.93437
3.65301
4.32641
4.85993
5.36789
5.897
6.43331
6.87089
7.3851
7.89942
8.36958
8.74765
9.03433
9.21921
0.122689
0.119969
0.134331
0.377651
1.21477
2.10193
2.65599
3.35073
4.09905
4.77679
5.39577
5.96938
6.62161
7.16711
7.70649
8.21562
8.6838
9.0789
9.38919
9.59381
0.122593
0.11925
0.123121
0.221887
0.824193
1.82
2.38474
3.01824
3.75489
4.50328
5.20694
5.82553
6.55373
7.18492
7.8546
8.40717
8.88777
9.30259
9.63594
9.85932
0.122531
0.118787
0.119471
0.152571
0.501811
1.36761
2.13777
2.70323
3.36399
4.10538
4.85183
5.53564
6.32005
7.07685
7.91316
8.49782
8.99921
9.43671
9.7928
10.0338
0.12249
0.118455
0.117987
0.128437
0.2868
0.941228
1.87107
2.41956
2.99401
3.65679
4.40349
5.17312
6.04412
6.97684
7.93008
8.509
9.03737
9.4997
9.87788
10.1351
0.122464
0.118206
0.117112
0.120506
0.172358
0.569941
1.39174
2.16265
2.68598
3.26391
3.9792
4.83974
5.86271
6.97916
7.84165
8.46321
9.02204
9.51017
9.9091
10.1806
0.122449
0.118011
0.116487
0.117887
0.132787
0.310643
0.935489
1.78869
2.42812
3.00675
3.74414
4.71558
5.87767
6.97402
7.71357
8.37975
8.97327
9.48668
9.9041
10.1875
0.12244
0.117832
0.115901
0.116297
0.120901
0.176402
0.546034
1.28085
2.12233
2.87852
3.76627
4.89023
5.88219
6.77921
7.57823
8.28769
8.91217
9.44725
9.87977
10.1724
0.1224
0.117494
0.114877
0.114005
0.11497
0.127165
0.274319
0.808776
1.61931
2.55245
3.5692
4.63066
5.66926
6.62126
7.46712
8.21002
8.8575
9.4082
9.85146
10.1504
0.122121
0.116529
0.112737
0.11015
0.108561
0.109333
0.146984
0.479744
1.27629
2.28799
3.3757
4.4864
5.55582
6.53426
7.40407
8.16477
8.82426
9.38306
9.83204
10.1342
0.259275
0.593948
0.672385
0.663697
0.431751
0.419304
0.194107
0.884714
1.43351
1.73301
1.81931
1.7538
1.24239
0.411181
0.392327
0.5926
0.856085
1.35421
1.19554
1.73583
0.183432
0.88402
1.51339
2.10249
2.55251
2.73659
2.31734
1.25045
0.368182
2.01353
2.4897
2.7882
3.48967
3.13861
3.76754
0.140048
0.54959
1.32969
2.00682
2.67003
3.11577
3.08713
2.33163
1.12105
0.517499
0.832562
2.49982
3.59047
4.25137
4.66311
4.85275
5.0075
5.10444
0.12794
0.30559
1.14058
1.79606
2.52814
3.16104
3.47108
3.09932
2.41631
2.06665
1.85379
2.03997
2.99616
3.6232
4.57345
5.27118
5.73281
5.994
6.16573
6.27183
0.124565
0.183399
0.768317
1.5762
2.28838
3.00602
3.55325
3.72273
3.51251
3.4377
3.56374
3.8238
4.1492
4.72944
5.4875
6.14206
6.62325
6.93367
7.13596
7.25846
0.123513
0.139088
0.461246
1.38579
2.04459
2.76676
3.43303
3.92913
4.13385
4.20977
4.46924
4.82896
5.16399
5.65784
6.28463
6.86257
7.35129
7.69262
7.92609
8.06904
0.123078
0.12549
0.263252
0.992682
1.83558
2.50995
3.2037
3.87041
4.36832
4.6868
5.06888
5.53609
5.92374
6.36424
6.91211
7.4458
7.92683
8.29117
8.55267
8.71688
0.122837
0.121416
0.169081
0.641872
1.63139
2.27882
2.93362
3.65251
4.32604
4.85914
5.36496
5.89121
6.43426
6.87229
7.38509
7.89913
8.3694
8.74746
9.03415
9.21902
0.122688
0.119968
0.134288
0.37748
1.21473
2.08995
2.65518
3.35008
4.09843
4.7758
5.39318
5.96483
6.61694
7.16146
7.70642
8.21555
8.6837
9.07877
9.38909
9.5937
0.122593
0.119249
0.123108
0.221761
0.824082
1.81989
2.3837
3.01745
3.75409
4.50214
5.20456
5.82166
6.54736
7.18075
7.85199
8.40718
8.88773
9.30253
9.63589
9.85927
0.122531
0.118786
0.119468
0.152511
0.501649
1.36766
2.13665
2.70207
3.36313
4.10431
4.84977
5.53272
6.31556
7.07357
7.91042
8.49785
8.99921
9.43669
9.79278
10.0338
0.12249
0.118454
0.117986
0.128412
0.286582
0.941019
1.87118
2.41875
2.9931
3.65574
4.40195
5.17063
6.04115
6.97383
7.93006
8.5091
9.03738
9.49968
9.87788
10.1351
0.122464
0.118206
0.117112
0.120505
0.172354
0.569969
1.39176
2.16197
2.685
3.26279
3.97786
4.83808
5.86073
6.97674
7.84177
8.46313
9.02208
9.51017
9.90911
10.1806
0.122449
0.118011
0.116487
0.117887
0.13278
0.310626
0.935465
1.78862
2.42742
3.00583
3.74299
4.71423
5.87623
6.974
7.71349
8.37974
8.9733
9.48668
9.9041
10.1875
0.12244
0.117832
0.115901
0.116297
0.1209
0.176392
0.545997
1.28075
2.12218
2.87776
3.76529
4.88922
5.88212
6.77918
7.57809
8.28764
8.91219
9.44726
9.87977
10.1724
0.1224
0.117494
0.114877
0.114005
0.11497
0.127159
0.274286
0.808661
1.6191
2.55236
3.56911
4.63054
5.66922
6.62124
7.46705
8.21001
8.85752
9.4082
9.85146
10.1504
0.122121
0.116529
0.112736
0.11015
0.108561
0.109331
0.146975
0.479689
1.27626
2.288
3.37569
4.48639
5.55584
6.53425
7.40407
8.1648
8.82427
9.38306
9.83204
10.1342
0.259522
0.600585
0.686582
0.681521
0.442043
0.430224
0.193755
0.884577
1.43506
1.73327
1.81859
1.75475
1.25087
0.433735
0.392431
0.592626
0.856123
1.35409
1.19547
1.73576
0.182975
0.883929
1.51244
2.10203
2.55208
2.73746
2.32643
1.25716
0.375349
2.01192
2.48949
2.78793
3.48949
3.1383
3.7673
0.139967
0.548739
1.32865
2.00631
2.66926
3.11557
3.08811
2.329
1.11997
0.532892
0.832577
2.50402
3.58956
4.25123
4.66295
4.85242
5.00721
5.10412
0.127921
0.304991
1.14033
1.79572
2.52789
3.15998
3.46929
3.10012
2.41556
2.06997
1.86406
2.04023
3.00479
3.62848
4.57259
5.27074
5.73244
5.99363
6.16535
6.27146
0.124561
0.183115
0.767907
1.57583
2.28821
3.00559
3.55182
3.72084
3.51093
3.43744
3.56354
3.82846
4.15613
4.72784
5.48672
6.14179
6.62292
6.93332
7.13561
7.25811
0.123512
0.138992
0.460865
1.38571
2.04435
2.76643
3.4328
3.92794
4.13226
4.20928
4.47016
4.82941
5.16472
5.65594
6.28318
6.86154
7.35105
7.69235
7.92581
8.06876
0.123077
0.125463
0.262978
0.992505
1.8353
2.50952
3.20328
3.86983
4.36768
4.68581
5.06851
5.5356
5.92461
6.36493
6.91232
7.44462
7.92654
8.29097
8.55248
8.71667
0.122837
0.121409
0.168948
0.641651
1.63134
2.2785
2.93347
3.65231
4.32569
4.8584
5.364
5.89
6.43525
6.87368
7.38519
7.89815
8.36926
8.74734
9.03401
9.21889
0.122688
0.119966
0.13424
0.377264
1.2146
2.08946
2.65498
3.34995
4.09827
4.77544
5.39256
5.96348
6.61755
7.16086
7.7064
8.21553
8.68364
9.0787
9.38901
9.59363
0.122593
0.119249
0.123095
0.221617
0.823906
1.81971
2.38331
3.01734
3.75406
4.50199
5.20403
5.82054
6.5453
7.18041
7.85166
8.40719
8.8877
9.3025
9.63585
9.85923
0.122531
0.118786
0.119464
0.152446
0.501453
1.36763
2.13619
2.70165
3.36305
4.10421
4.84928
5.53206
6.3139
7.07313
7.90969
8.49788
8.99921
9.43668
9.79277
10.0338
0.12249
0.118454
0.117985
0.128387
0.286351
0.940782
1.87122
2.41861
2.99294
3.65558
4.40156
5.16963
6.03999
6.97288
7.93007
8.50919
9.0374
9.49968
9.87788
10.1351
0.122464
0.118205
0.117112
0.120503
0.172343
0.569965
1.39175
2.16181
2.68473
3.26248
3.97734
4.83707
5.85956
6.97586
7.84183
8.46304
9.02212
9.51018
9.90911
10.1806
0.122449
0.118011
0.116487
0.117887
0.132772
0.310601
0.935432
1.78852
2.42722
3.00552
3.74241
4.71323
5.87494
6.97401
7.71344
8.37975
8.97334
9.48669
9.90411
10.1875
0.12244
0.117832
0.115901
0.116297
0.120899
0.176378
0.54595
1.28064
2.122
2.87736
3.76464
4.88837
5.88211
6.77917
7.57798
8.28762
8.91221
9.44727
9.87978
10.1724
0.1224
0.117495
0.114877
0.114005
0.11497
0.127152
0.274251
0.808544
1.61888
2.55224
3.56901
4.63043
5.66918
6.62121
7.46699
8.21001
8.85753
9.40821
9.85147
10.1504
0.122121
0.116529
0.112736
0.110149
0.10856
0.10933
0.146963
0.47963
1.27621
2.28799
3.37568
4.48637
5.55583
6.53423
7.40406
8.16483
8.82428
9.38307
9.83204
10.1342
0.259668
0.605769
0.701014
0.698072
0.453556
0.441422
0.193388
0.88408
1.43545
1.73443
1.81877
1.75726
1.26211
0.457482
0.392545
0.592652
0.856169
1.35401
1.19543
1.73573
0.182537
0.883878
1.51188
2.10203
2.55228
2.73887
2.33517
1.26878
0.382996
2.01043
2.48938
2.7878
3.48934
3.13815
3.76716
0.13988
0.547869
1.32763
2.00585
2.66885
3.11589
3.08956
2.32685
1.1213
0.547744
0.837856
2.50964
3.58838
4.25094
4.66291
4.85224
5.00706
5.10392
0.127901
0.304356
1.13999
1.79522
2.52755
3.15947
3.46895
3.10184
2.4141
2.07491
1.87604
2.04356
3.01346
3.63388
4.57211
5.27045
5.73225
5.99343
6.16512
6.27124
0.124556
0.182811
0.767401
1.57521
2.28784
3.0054
3.55102
3.72003
3.51042
3.4373
3.56227
3.8326
4.16297
4.72706
5.48606
6.14162
6.62275
6.93313
7.1354
7.2579
0.123511
0.13889
0.460418
1.38553
2.04396
2.76679
3.43267
3.92718
4.13117
4.20925
4.47159
4.83016
5.16587
5.65439
6.28193
6.86076
7.35093
7.69218
7.92563
8.06858
0.123077
0.125434
0.26267
0.992228
1.8349
2.51119
3.20291
3.86937
4.36711
4.68498
5.06835
5.53544
5.92554
6.36558
6.91252
7.44376
7.92622
8.29082
8.55234
8.71654
0.122837
0.121402
0.168801
0.641359
1.63121
2.283
2.93326
3.65209
4.32531
4.85771
5.36325
5.88934
6.43624
6.87502
7.38539
7.89768
8.36919
8.74725
9.03393
9.2188
0.122688
0.119964
0.134189
0.377007
1.21441
2.10017
2.65475
3.34975
4.09803
4.77512
5.39228
5.96327
6.61887
7.16095
7.70643
8.21555
8.6836
9.07866
9.38896
9.59358
0.122593
0.119248
0.12308
0.221457
0.823679
1.81952
2.38292
3.01709
3.75385
4.50182
5.20394
5.82057
6.54499
7.18081
7.85172
8.40722
8.88769
9.30248
9.63583
9.85921
0.122531
0.118786
0.119461
0.152376
0.501226
1.36754
2.13575
2.70116
3.36285
4.10408
4.84914
5.5323
6.31374
7.07365
7.90974
8.49792
8.99922
9.43667
9.79276
10.0338
0.12249
0.118454
0.117984
0.128361
0.286111
0.94052
1.8712
2.41842
2.99273
3.65542
4.40142
5.16947
6.03996
6.97306
7.93005
8.50928
9.03743
9.49969
9.87788
10.1351
0.122464
0.118205
0.117111
0.1205
0.172325
0.569938
1.39171
2.16164
2.68446
3.26219
3.97705
4.83671
5.85956
6.97592
7.84183
8.46296
9.02216
9.51019
9.90911
10.1806
0.122449
0.118011
0.116487
0.117886
0.132762
0.310567
0.935366
1.78839
2.42698
3.00519
3.74196
4.7127
5.87502
6.97398
7.71349
8.37979
8.97338
9.4867
9.90411
10.1875
0.12244
0.117832
0.115901
0.116297
0.120897
0.17636
0.54589
1.28051
2.1218
2.87695
3.76408
4.88781
5.88203
6.77915
7.57798
8.28763
8.91223
9.44728
9.87978
10.1724
0.1224
0.117495
0.114877
0.114005
0.114969
0.127145
0.27421
0.808417
1.61866
2.55211
3.5689
4.6303
5.66916
6.62118
7.46697
8.20999
8.85754
9.40822
9.85147
10.1504
0.122121
0.116528
0.112735
0.110149
0.10856
0.109328
0.146951
0.479569
1.27616
2.28798
3.37566
4.48634
5.55582
6.53419
7.40402
8.16483
8.82432
9.38307
9.83205
10.1342
0.259808
0.613395
0.714828
0.713075
0.465234
0.452151
0.193016
0.883158
1.43482
1.73657
1.81996
1.76115
1.27589
0.481414
0.392627
0.592672
0.856211
1.35396
1.19541
1.73572
0.18212
0.883857
1.51172
2.10238
2.55288
2.74013
2.34389
1.28415
0.390613
2.00915
2.4893
2.78777
3.48927
3.1381
3.76707
0.139793
0.547
1.32661
2.00555
2.66873
3.11675
3.09136
2.3247
1.12428
0.561017
0.846364
2.51657
3.58754
4.25075
4.66292
4.85215
5.00698
5.10381
0.12788
0.303707
1.13959
1.7947
2.52726
3.1591
3.46903
3.10387
2.412
2.08106
1.88892
2.0495
3.02242
3.63947
4.57192
5.27025
5.73215
5.99332
6.165
6.27112
0.124551
0.182498
0.766839
1.57451
2.28745
3.00504
3.55068
3.72022
3.51058
3.4368
3.5598
3.83647
4.16973
4.72697
5.48547
6.14153
6.62266
6.93302
7.13527
7.25778
0.123509
0.138784
0.459925
1.38526
2.04342
2.76634
3.43247
3.92663
4.1306
4.20974
4.47312
4.83111
5.16737
5.65315
6.28081
6.86035
7.35086
7.69209
7.92553
8.06848
0.123077
0.125405
0.262336
0.991888
1.83432
2.5106
3.20243
3.86887
4.3667
4.68457
5.06853
5.53515
5.92653
6.36619
6.91268
7.44329
7.9261
8.29076
8.55226
8.71646
0.122836
0.121394
0.168645
0.641018
1.63101
2.28268
2.93288
3.65174
4.32487
4.85707
5.36238
5.88832
6.43723
6.8763
7.38565
7.89734
8.36914
8.7472
9.03388
9.21875
0.122688
0.119962
0.134135
0.376726
1.21417
2.0999
2.65439
3.3494
4.0976
4.77459
5.39172
5.96258
6.61936
7.16059
7.7065
8.21558
8.68357
9.07864
9.38894
9.59355
0.122593
0.119247
0.123064
0.221284
0.823411
1.81929
2.38239
3.01668
3.7535
4.50137
5.20351
5.82025
6.54427
7.18064
7.85152
8.40725
8.88769
9.30247
9.63582
9.8592
0.122531
0.118785
0.119457
0.152302
0.500973
1.36739
2.13515
2.70054
3.36246
4.1037
4.84878
5.53231
6.31322
7.07371
7.9095
8.49797
8.99923
9.43667
9.79276
10.0338
0.12249
0.118454
0.117982
0.128333
0.28586
0.940234
1.87113
2.41807
2.99231
3.65502
4.4011
5.16914
6.03966
6.97297
7.93004
8.50936
9.03746
9.49969
9.87788
10.1351
0.122464
0.118205
0.117111
0.120498
0.1723
0.569885
1.39164
2.16131
2.68401
3.26175
3.97664
4.83625
5.85933
6.97583
7.84181
8.46289
9.02219
9.5102
9.90912
10.1806
0.122449
0.118011
0.116487
0.117886
0.132752
0.310521
0.935289
1.78825
2.42661
3.00475
3.74146
4.7122
5.87484
6.97396
7.71354
8.37983
8.97341
9.48671
9.90412
10.1875
0.12244
0.117832
0.115901
0.116297
0.120895
0.17634
0.545819
1.28037
2.12159
2.87648
3.76353
4.88724
5.88199
6.77914
7.57799
8.28764
8.91226
9.44728
9.87979
10.1724
0.1224
0.117495
0.114877
0.114005
0.114969
0.127137
0.274163
0.808278
1.61844
2.55197
3.56878
4.63018
5.66916
6.62116
7.46696
8.20998
8.85756
9.40822
9.85148
10.1504
0.122121
0.116528
0.112735
0.110149
0.108559
0.109326
0.146937
0.479506
1.2761
2.28795
3.37563
4.4863
5.55581
6.53415
7.40398
8.16483
8.82435
9.38308
9.83205
10.1342
0.26002
0.622862
0.727595
0.726451
0.476306
0.462029
0.19264
0.881814
1.43328
1.73897
1.82211
1.76626
1.29175
0.504834
0.392651
0.592686
0.856246
1.35393
1.1954
1.73573
0.181724
0.883861
1.51173
2.10278
2.55338
2.74064
2.34886
1.30225
0.397891
2.00812
2.48923
2.78778
3.48923
3.1381
3.76703
0.139705
0.54614
1.32575
2.00535
2.66884
3.11781
3.09353
2.32195
1.12828
0.572359
0.856333
2.5247
3.58667
4.25062
4.66295
4.85209
5.00696
5.10375
0.127858
0.303048
1.13917
1.79428
2.52712
3.15916
3.46977
3.10573
2.40935
2.08807
1.90201
2.05741
3.03178
3.64533
4.572
5.2701
5.73211
5.99326
6.16493
6.27105
0.124545
0.18218
0.766247
1.57388
2.28709
3.00477
3.55065
3.7209
3.51086
3.43582
3.55644
3.8403
4.17646
4.72748
5.485
6.14146
6.62263
6.93298
7.13521
7.25772
0.123508
0.138676
0.459402
1.38494
2.04291
2.76533
3.43241
3.92641
4.13039
4.21038
4.47418
4.83226
5.16915
5.65223
6.27985
6.86002
7.35084
7.69205
7.92549
8.06842
0.123076
0.125375
0.261988
0.991503
1.83373
2.50795
3.20212
3.86862
4.36651
4.68448
5.06911
5.53553
5.92757
6.36677
6.91281
7.4427
7.92581
8.29073
8.55223
8.71643
0.122836
0.121386
0.168485
0.640647
1.63075
2.27726
2.93258
3.65155
4.32471
4.85666
5.36191
5.88776
6.4382
6.87752
7.38594
7.89709
8.36914
8.74718
9.03386
9.21873
0.122688
0.11996
0.13408
0.376423
1.21386
2.08826
2.65395
3.34909
4.09738
4.77431
5.39136
5.96202
6.6197
7.16005
7.70661
8.21563
8.68357
9.07862
9.38893
9.59354
0.122593
0.119246
0.123049
0.221102
0.823111
1.81898
2.38177
3.01624
3.75316
4.5011
5.20325
5.81983
6.54355
7.18029
7.85119
8.40729
8.8877
9.30247
9.63582
9.85919
0.122531
0.118785
0.119452
0.152226
0.500706
1.36721
2.13454
2.69989
3.36204
4.10339
4.84843
5.5322
6.31253
7.07362
7.9092
8.49801
8.99925
9.43668
9.79276
10.0338
0.12249
0.118453
0.117981
0.128305
0.285603
0.939934
1.87102
2.41765
2.99189
3.65466
4.40072
5.16875
6.03922
6.97277
7.93007
8.5094
9.03749
9.4997
9.87788
10.1351
0.122464
0.118205
0.117111
0.120495
0.172271
0.569821
1.39155
2.16099
2.68358
3.2613
3.97619
4.83571
5.85893
6.97572
7.84179
8.46279
9.02221
9.51021
9.90913
10.1806
0.122449
0.118011
0.116487
0.117885
0.132741
0.310469
0.935196
1.78809
2.42625
3.00429
3.74092
4.71162
5.87431
6.97394
7.71352
8.37983
8.97345
9.48672
9.90413
10.1875
0.12244
0.117832
0.115901
0.116297
0.120893
0.176316
0.54574
1.28022
2.12138
2.87601
3.76298
4.88665
5.88192
6.7791
7.57793
8.28763
8.91227
9.44729
9.87979
10.1724
0.1224
0.117495
0.114877
0.114005
0.114968
0.127128
0.274113
0.808139
1.61822
2.55181
3.56864
4.63006
5.66911
6.62114
7.46691
8.20998
8.85757
9.40823
9.85148
10.1504
0.122121
0.116528
0.112735
0.110148
0.108558
0.109324
0.146923
0.479435
1.27603
2.28792
3.37559
4.48626
5.55581
6.53413
7.40396
8.16484
8.82435
9.38309
9.83205
10.1342
0.260345
0.633542
0.73915
0.738221
0.48643
0.470925
0.192266
0.880088
1.43139
1.737
1.8251
1.77232
1.30874
0.527266
0.392623
0.592693
0.856272
1.35392
1.19539
1.73573
0.181347
0.883879
1.51188
2.10319
2.55365
2.74039
2.34881
1.31597
0.404666
2.00739
2.48917
2.78781
3.48921
3.13812
3.767
0.139617
0.545306
1.32488
2.00519
2.66904
3.11871
3.0961
2.31912
1.13288
0.581768
0.866657
2.53385
3.58605
4.25052
4.663
4.85207
5.00697
5.10372
0.127836
0.302389
1.13873
1.79387
2.52701
3.1592
3.46989
3.10727
2.40667
2.09558
1.90873
2.06666
3.03747
3.65152
4.57234
5.27001
5.73211
5.99325
6.16492
6.27103
0.12454
0.18186
0.765639
1.57329
2.28684
3.00477
3.55058
3.72128
3.51093
3.43426
3.55285
3.84429
4.18327
4.72858
5.48464
6.14142
6.62263
6.93297
7.1352
7.2577
0.123507
0.138568
0.458864
1.38459
2.0425
2.76574
3.43243
3.92624
4.13029
4.21097
4.47457
4.83361
5.17121
5.65161
6.27901
6.85982
7.35086
7.69204
7.92548
8.06841
0.123076
0.125344
0.26163
0.991086
1.83324
2.5096
3.20189
3.86844
4.36647
4.68472
5.06993
5.53605
5.92865
6.36734
6.91292
7.44259
7.92578
8.29073
8.55223
8.71642
0.122836
0.121379
0.168319
0.640246
1.63046
2.28174
2.93234
3.65145
4.32466
4.85655
5.36182
5.88746
6.43915
6.87866
7.38626
7.89692
8.36916
8.74718
9.03386
9.21872
0.122688
0.119958
0.134023
0.376104
1.21355
2.09888
2.65368
3.34894
4.09724
4.77413
5.39118
5.9617
6.62012
7.16001
7.70675
8.2157
8.68358
9.07863
9.38893
9.59354
0.122593
0.119246
0.123033
0.220914
0.82279
1.81869
2.38131
3.01595
3.75298
4.50092
5.2031
5.81975
6.54315
7.18014
7.85111
8.40734
8.88772
9.30247
9.63582
9.85919
0.122531
0.118785
0.119448
0.152147
0.500421
1.367
2.134
2.69938
3.36179
4.10318
4.84826
5.53232
6.31212
7.07362
7.90904
8.49806
8.99927
9.43668
9.79277
10.0338
0.12249
0.118453
0.117979
0.128276
0.285343
0.939624
1.87088
2.41733
2.99156
3.65434
4.40047
5.16851
6.03893
6.97268
7.93011
8.50944
9.03752
9.49971
9.87789
10.1351
0.122464
0.118205
0.11711
0.120492
0.172237
0.56973
1.39145
2.16068
2.68318
3.26092
3.97583
4.83529
5.8587
6.97557
7.84177
8.46269
9.02222
9.51022
9.90913
10.1806
0.122449
0.118011
0.116486
0.117884
0.132729
0.310414
0.935095
1.78791
2.42589
3.00391
3.74048
4.71116
5.87408
6.97392
7.71351
8.37982
8.97348
9.48673
9.90413
10.1875
0.12244
0.117832
0.115901
0.116297
0.120891
0.176292
0.545652
1.28005
2.12115
2.87559
3.76252
4.88621
5.88184
6.77906
7.57788
8.28762
8.91229
9.4473
9.8798
10.1724
0.1224
0.117495
0.114877
0.114005
0.114968
0.12712
0.274062
0.807992
1.61799
2.55166
3.56851
4.62994
5.66906
6.62112
7.46686
8.20998
8.85758
9.40824
9.85148
10.1504
0.122121
0.116527
0.112734
0.110148
0.108558
0.109322
0.146908
0.479366
1.27596
2.28789
3.37554
4.48621
5.55579
6.53412
7.40393
8.16484
8.82435
9.38309
9.83206
10.1342
0.260794
0.644848
0.749469
0.748491
0.495404
0.478746
0.191898
0.878119
1.42901
1.73496
1.82876
1.77904
1.3122
0.548404
0.392555
0.592696
0.856291
1.35391
1.1954
1.73574
0.180989
0.883906
1.51209
2.10352
2.55373
2.73945
2.34749
1.3245
0.410821
2.00697
2.4891
2.78785
3.4892
3.13816
3.76699
0.139531
0.54449
1.32411
2.00505
2.66927
3.11975
3.09906
2.31664
1.13786
0.589416
0.876684
2.54382
3.58545
4.25039
4.66307
4.85207
5.00702
5.10372
0.127814
0.301735
1.13826
1.79347
2.52694
3.15943
3.47146
3.10813
2.40416
2.10334
1.91603
2.07663
3.03218
3.65808
4.57293
5.26997
5.73214
5.99327
6.16494
6.27104
0.124534
0.181542
0.765009
1.57269
2.28656
3.00468
3.5506
3.7225
3.51084
3.43229
3.54918
3.84857
4.19024
4.73023
5.48442
6.14139
6.62267
6.93301
7.13522
7.25772
0.123505
0.138459
0.458309
1.38421
2.04207
2.76553
3.43245
3.92629
4.13043
4.21143
4.4743
4.83519
5.17353
5.65131
6.27829
6.85966
7.3509
7.69207
7.9255
8.06843
0.123075
0.125314
0.261262
0.990637
1.83272
2.5092
3.20173
3.86838
4.36647
4.685
5.07082
5.53654
5.9298
6.36789
6.91301
7.44228
7.92561
8.29076
8.55225
8.71644
0.122836
0.121371
0.16815
0.639826
1.63014
2.28136
2.93211
3.65139
4.32464
4.85644
5.36185
5.88737
6.44008
6.87974
7.38659
7.89685
8.3692
8.7472
9.03388
9.21874
0.122688
0.119956
0.133965
0.375772
1.21321
2.09855
2.65337
3.34877
4.09716
4.77403
5.39106
5.96154
6.62056
7.15987
7.70692
8.21578
8.68361
9.07864
9.38894
9.59355
0.122593
0.119245
0.123016
0.220719
0.822446
1.81838
2.38084
3.01562
3.75278
4.5008
5.20305
5.81965
6.54292
7.18001
7.85098
8.40739
8.88774
9.30248
9.63583
9.8592
0.122531
0.118784
0.119444
0.152066
0.500125
1.36675
2.1335
2.69886
3.3615
4.10302
4.84814
5.53244
6.31179
7.07366
7.90893
8.49811
8.9993
9.43669
9.79278
10.0338
0.12249
0.118453
0.117978
0.128247
0.285078
0.939299
1.8707
2.41699
2.99126
3.65412
4.40029
5.16839
6.03876
6.97268
7.93014
8.50946
9.03755
9.49973
9.87789
10.1351
0.122464
0.118205
0.11711
0.120488
0.1722
0.569634
1.39133
2.16044
2.68286
3.26058
3.97552
4.83494
5.85853
6.97562
7.84174
8.46261
9.02224
9.51023
9.90914
10.1806
0.122449
0.118011
0.116486
0.117884
0.132716
0.31035
0.934981
1.78772
2.42561
3.00351
3.74002
4.71067
5.87379