/*--------------------------------*- C++ -*----------------------------------*\
  =========                 |
  \\      /  F ield         | OpenFOAM: The Open Source CFD Toolbox
   \\    /   O peration     | Website:  https://openfoam.org
    \\  /    A nd           | Version:  10
     \\/     M anipulation  |
\*---------------------------------------------------------------------------*/
FoamFile
{
    format      ascii;
    class       volScalarField;
    location    "2000";
    object      p;
}
// * * * * * * * * * * * * * * * * * * * * * * * * * * * * * * * * * * * * * //

dimensions      [0 2 -2 0 0 0 0];

internalField   nonuniform List<scalar> 
52338
(
0.193588
0.730719
0.806565
0.391573
0.320914
1.05185
0.270803
0.467096
0.503744
0.42831
0.351366
0.504481
-0.126404
-0.456696
-0.0188947
-0.0156227
-0.019024
0.0174904
0.0251978
-0.00345075
0.29531
0.442645
0.494954
0.472683
0.48058
0.531141
0.573382
-0.024883
-1.36828
-0.042154
-0.0166185
-0.0140699
-0.00419295
0.00674884
0.00421688
0.242106
0.367978
0.431
0.431676
0.436756
0.451093
0.481588
0.163558
0.174994
0.635323
-0.262441
-0.513923
-0.0323515
-0.0159482
-0.0124559
-0.0048545
-0.00392146
0.00207611
0.196497
0.285779
0.344475
0.36381
0.374406
0.372896
0.400565
0.478503
0.36905
0.356407
0.251742
-0.0534074
-0.471998
-0.0536136
-0.02248
-0.0148832
-0.0111833
-0.0052491
-0.00386746
0.000990364
0.163719
0.22205
0.269827
0.297661
0.316503
0.314052
0.331453
0.395423
0.382956
0.379913
0.267991
-0.0327138
-0.126004
-0.0652841
-0.0205113
-0.0121798
-0.00879553
-0.00510113
-0.00323576
2.99429e-05
0.140634
0.177651
0.213272
0.241048
0.265033
0.270836
0.284657
0.322844
0.333312
0.325791
0.229909
0.0211981
-0.0946125
-0.0683617
-0.0244171
-0.0101253
-0.00691532
-0.00456864
-0.00266199
-0.001355
0.123888
0.148212
0.171547
0.195386
0.219287
0.231947
0.248186
0.272962
0.274999
0.262865
0.18547
0.0309951
-0.0649719
-0.061339
-0.0253037
-0.00828611
-0.00517574
-0.00416146
-0.00211666
-0.00287705
0.111106
0.128319
0.141437
0.160065
0.180124
0.193324
0.210683
0.232556
0.229128
0.214543
0.151188
0.0288497
-0.0427624
-0.0447499
-0.0206423
-0.00626303
-0.0037102
-0.00378813
-0.00153224
-0.00435193
0.101115
0.113983
0.120308
0.132819
0.148324
0.158373
0.174966
0.19623
0.192681
0.178331
0.126017
0.0259976
-0.0271414
-0.0298775
-0.0155492
-0.00446114
-0.00254154
-0.00347072
-0.000911318
-0.00571488
0.0930145
0.102853
0.105323
0.111853
0.122941
0.128305
0.140859
0.161932
0.161454
0.149436
0.106835
0.0332057
-0.00662445
-0.019582
-0.0113798
-0.00293647
-0.00159212
-0.00322619
-0.000292319
-0.00698697
0.0863105
0.0937416
0.0939232
0.095608
0.102072
0.104164
0.11032
0.128705
0.133661
0.124904
0.0912555
0.0461753
0.0129336
-0.0117634
-0.00783112
-0.00169798
-0.000831224
-0.00307238
0.000246606
-0.00821867
0.0806431
0.0860777
0.084172
0.0821359
0.0838887
0.0845649
0.0870263
0.100693
0.109045
0.103022
0.0767851
0.0458369
0.0184221
-0.00605197
-0.00483148
-0.0009518
-0.000243762
-0.00299544
0.000682635
-0.00935413
0.0758189
0.079604
0.0762509
0.0721308
0.0704049
0.070137
0.0717378
0.0804775
0.0873847
0.0826137
0.0625793
0.0395225
0.0178552
-0.00185499
-0.00338734
-0.00109682
0.000164044
-0.00297204
0.00103811
-0.0103348
0.0716917
0.074171
0.0705795
0.0661046
0.0628398
0.0614969
0.0617192
0.0659387
0.0687971
0.0639258
0.0483763
0.0314955
0.0155908
0.00111354
-0.00180392
-0.00102402
0.000439755
-0.00300648
0.00131551
-0.0111411
0.0682263
0.0696355
0.0664077
0.0623451
0.0586863
0.0562377
0.0546488
0.0554898
0.0541151
0.0478072
0.0355167
0.0239979
0.0129753
0.00326383
0.00048981
-0.0001781
0.000715286
-0.00305319
0.00153523
-0.0116868
0.0654018
0.0659391
0.0632161
0.059788
0.0561446
0.0529244
0.0497412
0.0481378
0.0436814
0.0364381
0.026398
0.0185919
0.011016
0.00466659
0.00217303
0.00048398
0.000927199
-0.00310475
0.00169956
-0.0122983
0.0639114
0.0638849
0.0614909
0.0584966
0.054829
0.0512614
0.0472742
0.0444519
0.0383574
0.0312891
0.0224006
0.0161508
0.0101385
0.00516378
0.00287445
0.000737363
0.00104686
-0.00324677
0.00186883
-0.0134213
0.166273
0.158705
0.134773
0.169614
0.132132
0.204626
0.132428
0.095611
0.082912
0.117288
0.138868
0.135768
0.036522
0.0193248
0.0253886
-0.00792096
-0.0194551
0.0165463
0.0237571
-0.0036215
0.109049
0.0836586
0.0720485
0.0811383
0.0964073
0.115115
0.110674
-0.0330621
-0.162875
0.00631949
-0.00719958
-0.0117245
-0.00176109
0.00774478
0.00427932
0.114818
0.101643
0.0918903
0.0948833
0.10655
0.135413
0.149506
0.191049
0.173459
0.049316
0.436414
-0.00910936
0.00344105
-0.00929849
-0.01062
-0.00350346
-0.00349748
0.0019462
0.118056
0.11533
0.109767
0.109572
0.118386
0.142286
0.146408
0.109377
0.0933376
0.00371832
0.000952243
0.318068
0.158754
0.0320311
0.00434991
-0.00847784
-0.00918248
-0.00475037
-0.00378197
0.000733568
0.114718
0.118144
0.116665
0.115683
0.121639
0.138452
0.138084
0.105188
0.0194626
-0.0275249
-0.00719144
0.187246
0.153076
0.0628508
0.00994845
-0.00580794
-0.00719729
-0.00512699
-0.00352935
-0.000319945
0.108013
0.113555
0.115089
0.11481
0.118262
0.127374
0.124205
0.0977333
0.0329962
-0.00108707
0.0137577
0.130991
0.139919
0.0830338
0.0266972
-0.00218934
-0.00547524
-0.00474072
-0.00310735
-0.00170042
0.100449
0.105894
0.108692
0.109566
0.111425
0.114503
0.1089
0.0900485
0.045245
0.021197
0.0297368
0.094076
0.116183
0.0906782
0.0422281
0.000850865
-0.00371564
-0.00425598
-0.00253331
-0.003171
0.09316
0.0977459
0.100591
0.102341
0.103449
0.103902
0.0973722
0.0826335
0.0518347
0.0336384
0.0378408
0.0788247
0.0915223
0.0772043
0.0424329
0.00251714
-0.00224414
-0.00375279
-0.00186469
-0.00458682
0.0868081
0.09032
0.0925867
0.0944754
0.095418
0.0949084
0.08836
0.0759979
0.053318
0.0387477
0.0404681
0.07278
0.0737322
0.0596383
0.037485
0.00324551
-0.0011614
-0.00334315
-0.0011666
-0.00589566
0.0814198
0.0839838
0.0853847
0.086926
0.0877915
0.0867688
0.0808119
0.0704419
0.0525118
0.0401168
0.0393332
0.0600012
0.0568401
0.0477957
0.0319666
0.00340805
-0.000392794
-0.00306298
-0.000488593
-0.00712743
0.0769584
0.0787729
0.0793625
0.0803989
0.0809675
0.0795398
0.0739938
0.0658433
0.0508816
0.0398546
0.0365198
0.0420934
0.0382868
0.0380239
0.0265238
0.00317791
0.00012706
-0.0029122
0.000102165
-0.0083248
0.0733093
0.0745768
0.0745556
0.0751331
0.0753429
0.0737401
0.0682514
0.0613976
0.0488507
0.0389444
0.03412
0.0332993
0.0286739
0.0298727
0.0212594
0.00287964
0.000470815
-0.00285418
0.00058201
-0.00943627
0.0704056
0.0712687
0.0708248
0.0709832
0.0707888
0.0689245
0.0634046
0.0570233
0.0467297
0.0378589
0.032418
0.0290668
0.0237186
0.0233383
0.017811
0.00361651
0.000797817
-0.00285606
0.000962426
-0.0103985
0.0681765
0.0687496
0.0679398
0.0675352
0.0667018
0.0646361
0.0593471
0.0534149
0.04475
0.0369064
0.0307962
0.0262694
0.0206134
0.0180524
0.0148394
0.00467417
0.00114242
-0.00288754
0.00124943
-0.0111907
0.0666048
0.0669685
0.0658046
0.0648019
0.0631995
0.0608609
0.056218
0.0509913
0.04338
0.0363243
0.0296494
0.0241312
0.0180722
0.0136664
0.010982
0.00383709
0.00132224
-0.00293772
0.00147278
-0.0117283
0.0655053
0.0657048
0.0643043
0.0628649
0.0606837
0.0581161
0.0540193
0.0495508
0.0427645
0.0361092
0.0286666
0.0226304
0.0160329
0.0106942
0.00812767
0.00289913
0.00138963
-0.00301946
0.0016411
-0.0123354
0.0648541
0.0648977
0.0634217
0.0617705
0.0593215
0.0566201
0.0526837
0.0489056
0.0425677
0.035806
0.0278359
0.0216663
0.0148425
0.0092699
0.00682789
0.00242304
0.00142352
-0.00318749
0.00181216
-0.0134563
0.0833727
0.0531184
0.0415676
0.0500871
0.0302527
0.00757566
0.0664886
0.0489524
0.0413677
0.0447591
0.0360518
0.0297192
-0.0144077
-0.0767606
-0.0144906
-0.0151465
-0.0202582
0.0174594
0.0243877
-0.00344619
0.0401417
0.0154437
0.00458207
0.00535493
-0.00145792
-0.016982
-0.00608306
-0.0202008
-0.163083
-0.0343607
-0.0162459
-0.0118231
0.000958237
0.00861622
0.00538313
0.0397473
0.0171752
0.00277838
0.000641206
-0.00528076
-0.0184854
-0.0127344
-0.0344662
-0.00526319
-0.0708557
-0.19788
-0.09738
-0.0212235
-0.0151966
-0.00859075
-0.000478574
-0.00151858
0.00315054
0.0445862
0.0260736
0.0118002
0.00682622
0.00119839
-0.0101544
-0.0189156
-0.0386368
-0.0280129
-0.050773
-0.0983286
-0.200589
-0.171437
-0.0748515
-0.0184793
-0.0139339
-0.00786832
-0.00254539
-0.00205191
0.00163986
0.0489867
0.0354307
0.022353
0.0153066
0.00880379
-0.000431637
-0.0138504
-0.032977
-0.0610998
-0.0824967
-0.123449
-0.16392
-0.118971
-0.0648783
-0.0194447
-0.0127132
-0.00717422
-0.00384775
-0.00234461
0.000301872
0.053026
0.0435115
0.0326753
0.0247489
0.0172232
0.00884214
-0.00488401
-0.0238143
-0.0546749
-0.0741156
-0.102813
-0.114795
-0.0872108
-0.0589828
-0.0223034
-0.0119663
-0.00645629
-0.00419057
-0.00236699
-0.00128128
0.0560887
0.0495017
0.0410909
0.0334036
0.0253668
0.0171835
0.0036702
-0.0150441
-0.0444347
-0.0610176
-0.0797004
-0.0790033
-0.0646471
-0.0515262
-0.0243017
-0.0113593
-0.00542498
-0.00427882
-0.00214769
-0.00291076
0.0579767
0.0534793
0.0472773
0.0405955
0.0325842
0.0243676
0.0111269
-0.00714926
-0.033056
-0.0477657
-0.0601696
-0.0557876
-0.0464879
-0.0400804
-0.0224295
-0.0103067
-0.00443859
-0.00420738
-0.0017534
-0.00444817
0.0590523
0.055891
0.0514684
0.0460468
0.0386203
0.0304897
0.0176055
0.000314204
-0.0222898
-0.0351291
-0.0441235
-0.0411112
-0.0329145
-0.0283991
-0.0180306
-0.00868979
-0.00350095
-0.0040643
-0.00124879
-0.00584503
0.0595052
0.0572316
0.0540135
0.0499019
0.0434883
0.0357234
0.023502
0.00741123
-0.0123891
-0.0238527
-0.0310404
-0.029588
-0.0223799
-0.0194549
-0.0132365
-0.00684628
-0.00261165
-0.00390693
-0.000697854
-0.00713989
0.0596281
0.0579578
0.0555307
0.0525331
0.0472194
0.0401506
0.0286469
0.014158
-0.00350072
-0.0140912
-0.0202668
-0.0189516
-0.0141434
-0.013208
-0.00884727
-0.00504492
-0.00180514
-0.00376845
-0.000190669
-0.00837715
0.0595923
0.0583654
0.0565002
0.0543612
0.0500601
0.043933
0.0332167
0.0200956
0.0042549
-0.00561236
-0.0111076
-0.0106148
-0.00801458
-0.0084193
-0.00536348
-0.00363916
-0.00116263
-0.00366021
0.000245415
-0.0095117
0.0595393
0.058634
0.0571682
0.0556123
0.0520625
0.0467589
0.036992
0.0249056
0.0109232
0.00169099
-0.00347664
-0.00437363
-0.00350588
-0.00452525
-0.00295209
-0.00311165
-0.000715924
-0.00359162
0.000612588
-0.0104867
0.0595306
0.0588597
0.0575734
0.0562733
0.0531269
0.0484517
0.0398107
0.0288855
0.0164648
0.00789353
0.00229918
0.000329727
0.000118064
-0.00144486
-0.00153665
-0.00238137
-0.000379053
-0.00357317
0.000916199
-0.0112834
0.059666
0.0591632
0.057882
0.0565978
0.0536409
0.0493758
0.0418584
0.0322979
0.0211157
0.0130722
0.00693832
0.00414338
0.00284358
0.00069743
-3.16777e-05
-0.00171415
-0.000166928
-0.00360734
0.00115831
-0.0118185
0.05987
0.0594887
0.0581778
0.0568303
0.0539625
0.049948
0.0432774
0.0350255
0.024985
0.0172038
0.0106577
0.00723134
0.00469646
0.00202559
0.0011311
-0.00110175
-2.9546e-05
-0.00367286
0.00133228
-0.0124231
0.0599882
0.0596394
0.0583358
0.0569426
0.0541181
0.050238
0.0439528
0.0366129
0.027264
0.0194796
0.0126293
0.00894929
0.00562612
0.00260109
0.00163657
-0.000842865
4.06623e-05
-0.00382051
0.00150717
-0.0135448
0.0610693
0.027697
0.0167848
0.0171708
-0.002232
-0.0211111
0.0501351
0.0325405
0.0254891
0.0244869
0.0145158
-0.00260887
-0.0315823
-0.053772
-0.0289796
-0.0239061
-0.0237751
0.016255
0.0240153
-0.00355293
0.0472634
0.0367247
0.0333866
0.030014
0.0200615
0.000140563
-0.0117268
-0.0271062
-0.147167
-0.0428541
-0.024863
-0.0159576
-0.0011336
0.00765587
0.00522574
0.0470568
0.0393322
0.0347642
0.0307571
0.0212541
0.00188038
-0.00718165
-0.0244038
-0.0330155
-0.0914123
-0.137423
-0.0792449
-0.0347815
-0.0240817
-0.0124007
-0.00251045
-0.00236807
0.00311123
0.0470918
0.0401641
0.0345063
0.0302514
0.0217799
0.00572383
-0.00674428
-0.024282
-0.0390242
-0.0663513
-0.107892
-0.140812
-0.115864
-0.0686086
-0.0335157
-0.0232472
-0.0118561
-0.00439243
-0.00279416
0.00166859
0.046963
0.0411666
0.0350644
0.0302733
0.0223903
0.00956402
-0.00281477
-0.0166373
-0.0420972
-0.0570569
-0.0918808
-0.12275
-0.0976702
-0.0677635
-0.0321919
-0.0214523
-0.0110758
-0.00546498
-0.00288277
0.000384093
0.0480941
0.0431946
0.0374213
0.0322492
0.024684
0.0141421
0.00217561
-0.0108324
-0.0323785
-0.0456868
-0.0749232
-0.09989
-0.0872395
-0.0640621
-0.0311232
-0.0194877
-0.0103378
-0.00571505
-0.00277075
-0.00120714
0.0496351
0.0455669
0.0404026
0.0351626
0.0278289
0.0189227
0.00742656
-0.00555796
-0.0259599
-0.0384492
-0.0614235
-0.0801851
-0.0725491
-0.0570949
-0.0299493
-0.0174638
-0.00930161
-0.0058208
-0.00253545
-0.00287103
0.0510379
0.0478161
0.0433294
0.0384597
0.0313039
0.0232122
0.0123817
-0.000409302
-0.019192
-0.0311598
-0.0495943
-0.0631349
-0.0577027
-0.0471451
-0.0271461
-0.0153304
-0.0081714
-0.0057726
-0.00217565
-0.0044517
0.0522853
0.049717
0.045865
0.0415138
0.0347795
0.0269444
0.01676
0.00462403
-0.0125722
-0.0237031
-0.0385634
-0.0490781
-0.0451104
-0.0374002
-0.0232186
-0.0132052
-0.00697944
-0.00561756
-0.0017036
-0.00588884
0.0532231
0.0511843
0.0478089
0.04397
0.0379478
0.030354
0.0206289
0.00927202
-0.00621916
-0.0165434
-0.0286362
-0.0367066
-0.0341575
-0.0292492
-0.019127
-0.0112056
-0.00581664
-0.00540317
-0.0011712
-0.00720865
0.0539375
0.0522917
0.0492687
0.0457544
0.0404059
0.0334076
0.0238667
0.013528
-0.000337363
-0.00994262
-0.0199795
-0.0257337
-0.0248448
-0.0225123
-0.0151591
-0.00930811
-0.00473521
-0.00517704
-0.000669779
-0.00846954
0.0544422
0.0531074
0.0503574
0.0470448
0.0421235
0.0359567
0.0267895
0.0172166
0.00487291
-0.00402874
-0.0124886
-0.017179
-0.0174733
-0.0167751
-0.0116447
-0.00753556
-0.0037668
-0.00498389
-0.00023237
-0.0096194
0.0548054
0.0536988
0.0511853
0.048074
0.0433965
0.0378885
0.029396
0.0202136
0.00928379
0.000990398
-0.00629547
-0.0107242
-0.0118767
-0.0121418
-0.00874107
-0.0063239
-0.0029874
-0.00483888
0.000141209
-0.0106031
0.0550379
0.0540995
0.0517676
0.0488548
0.0443465
0.0392389
0.0314824
0.0227126
0.0126703
0.00495659
-0.00197334
-0.00610683
-0.00760902
-0.00863072
-0.00665799
-0.00526711
-0.00238954
-0.00474223
0.000446768
-0.0114067
0.0552203
0.0543969
0.0521912
0.0494771
0.0451564
0.0402098
0.0330444
0.024852
0.0152334
0.00778996
0.000969362
-0.00290591
-0.00474142
-0.00620874
-0.00492731
-0.00449718
-0.00198854
-0.00469779
0.000686347
-0.0119467
0.0553478
0.0546163
0.0525186
0.0499811
0.0458442
0.0409667
0.0341425
0.0265095
0.0172835
0.00980365
0.00305798
-0.000681367
-0.00300309
-0.0046628
-0.00377666
-0.00397617
-0.00173008
-0.00469062
0.000866193
-0.0125541
0.055437
0.0547146
0.0527164
0.0502994
0.0462903
0.0414641
0.0347106
0.027456
0.0184631
0.0109364
0.00407484
0.000441868
-0.00214861
-0.00394447
-0.00331632
-0.00382576
-0.0016057
-0.00480046
0.00104619
-0.0136754
0.0619645
0.0337232
0.0245262
0.0207746
0.00289681
-0.00308153
0.0530638
0.0390958
0.032989
0.028608
0.021161
0.0142047
0.00734266
0.013309
-0.0251689
-0.0248133
-0.0252171
0.0151449
0.0233841
-0.00371386
0.0543156
0.046189
0.0427088
0.0385895
0.0333351
0.0260499
0.0225951
0.0246314
-0.126993
-0.0394437
-0.0249263
-0.0171706
-0.00244237
0.00704245
0.00497305
0.0560695
0.0518239
0.0482796
0.0439071
0.0382891
0.0289036
0.0246648
0.00847857
-0.00811515
-0.0756914
-0.0852719
-0.0569357
-0.030461
-0.0231204
-0.0135658
-0.00407403
-0.00316878
0.00278983
0.0563013
0.053467
0.0504242
0.0467935
0.041232
0.0318346
0.0227407
0.00303481
-0.0218247
-0.053765
-0.0834212
-0.09598
-0.0626436
-0.0443267
-0.0279959
-0.021872
-0.0128795
-0.00579125
-0.00367548
0.00134738
0.055458
0.0537582
0.0510979
0.0476808
0.0422512
0.0332837
0.0232052
0.0071737
-0.0271563
-0.0420973
-0.0609967
-0.0633368
-0.0452435
-0.0395196
-0.024603
-0.0198949
-0.0118202
-0.00662831
-0.00367501
0.000110967
0.0549748
0.0536121
0.0513166
0.0479904
0.0425709
0.0343408
0.0238556
0.00886546
-0.0172207
-0.0305002
-0.0456839
-0.0492904
-0.0397673
-0.0338404
-0.0207226
-0.017555
-0.0108491
-0.00664976
-0.00344788
-0.00142563
0.0544671
0.0531808
0.0510578
0.0478386
0.042345
0.0350062
0.0248463
0.0111035
-0.0110056
-0.0226439
-0.035801
-0.0421123
-0.032915
-0.0287407
-0.0175056
-0.0152257
-0.00964861
-0.00654479
-0.00309219
-0.00304445
0.0539894
0.0528222
0.050675
0.047715
0.0421436
0.0352996
0.0258545
0.0136154
-0.00500068
-0.0156971
-0.0276931
-0.0346072
-0.0274977
-0.0238781
-0.0151258
-0.0130095
-0.00840026
-0.00632284
-0.00261565
-0.00458862
0.0537671
0.0526306
0.050383
0.0475769
0.0422027
0.03536
0.0267314
0.0159692
-0.000117384
-0.00999761
-0.0208342
-0.0275318
-0.02319
-0.0199848
-0.0131805
-0.0111113
-0.00719018
-0.00606073
-0.00205755
-0.00599727
0.0536713
0.052606
0.0502444
0.0474373
0.0424687
0.0356837
0.0275259
0.0179569
0.0039428
-0.00527454
-0.0150976
-0.0212267
-0.0191008
-0.0168309
-0.0114117
-0.00952946
-0.00608916
-0.00580781
-0.00147084
-0.00730218
0.0536701
0.0526817
0.0502874
0.0474131
0.0427327
0.0363737
0.0281437
0.0196541
0.00738809
-0.00125166
-0.0102551
-0.0156688
-0.0153753
-0.0140138
-0.0096497
-0.00814474
-0.00510657
-0.00559456
-0.000941583
-0.00855245
0.0536802
0.0527703
0.0503896
0.0474781
0.0429935
0.0372188
0.028975
0.0210114
0.0102585
0.00220217
-0.00593214
-0.0111449
-0.0119821
-0.0112875
-0.00795662
-0.00689496
-0.00424622
-0.00541987
-0.000493599
-0.00969868
0.0536944
0.0528471
0.0505054
0.0476107
0.0432389
0.0380192
0.0301756
0.0221811
0.0125931
0.005021
-0.00223311
-0.00729348
-0.00885019
-0.0087689
-0.00646225
-0.00592095
-0.00352152
-0.00528975
-0.000119537
-0.0106836
0.0536632
0.0528664
0.0505625
0.0477024
0.0433815
0.0385488
0.0313554
0.0235053
0.0144128
0.00726574
0.000309786
-0.00429028
-0.0060965
-0.00673531
-0.00529927
-0.00509618
-0.00293916
-0.00520287
0.000187215
-0.011488
0.0536149
0.0528443
0.0505614
0.0477343
0.0434581
0.038783
0.032223
0.0249065
0.0160759
0.00908248
0.00223659
-0.00200607
-0.00409403
-0.00533961
-0.00433692
-0.0045493
-0.00250644
-0.00514994
0.000434274
-0.0120271
0.0535323
0.052787
0.0505127
0.0477064
0.0434639
0.0388263
0.0326994
0.0260749
0.0176636
0.0106176
0.00383731
-0.000228224
-0.00278819
-0.00444261
-0.00371247
-0.00418777
-0.00222257
-0.00513825
0.000617791
-0.0126344
0.0534677
0.0526908
0.0504358
0.0476448
0.0434114
0.0387702
0.0327904
0.0267471
0.0186362
0.011563
0.00467689
0.000748881
-0.00212876
-0.00400854
-0.00344247
-0.00407639
-0.0020739
-0.00524715
0.000798373
-0.0137569
0.067282
0.0418632
0.033328
0.0280892
0.0141988
0.0163047
0.0567854
0.044293
0.0380222
0.0330757
0.0282495
0.0279551
0.0376296
0.0550798
-0.0201504
-0.0227479
-0.0245819
0.0151463
0.0232241
-0.00375311
0.0543848
0.0456821
0.041299
0.0372527
0.0345335
0.0342225
0.0415081
0.0526267
-0.120139
-0.0353336
-0.0226393
-0.0163824
-0.00223364
0.00701762
0.0049223
0.0547948
0.0497477
0.0447091
0.0402973
0.0367096
0.0332545
0.0360443
0.030276
0.0123938
-0.0602864
-0.0640762
-0.0506426
-0.0265934
-0.020433
-0.0124399
-0.00381092
-0.00311551
0.0026902
0.0552321
0.0514836
0.0471297
0.0432264
0.0393084
0.0339792
0.028934
0.0131017
-0.00978736
-0.0437468
-0.0691116
-0.0786017
-0.0573677
-0.0410738
-0.024109
-0.0188248
-0.0116942
-0.00547756
-0.00362096
0.00129315
0.0553154
0.0530142
0.0492765
0.0453352
0.0410574
0.0346432
0.0266555
0.0122814
-0.0227826
-0.0380461
-0.0552855
-0.0565228
-0.0415187
-0.0350987
-0.0206623
-0.0169218
-0.010591
-0.00630251
-0.00363125
7.6776e-05
0.0555345
0.0538755
0.0508524
0.0469904
0.0422526
0.0355479
0.0261812
0.0112919
-0.0159099
-0.0292225
-0.0429421
-0.0430853
-0.0336315
-0.0284542
-0.0170999
-0.0148399
-0.00958674
-0.00631468
-0.00342522
-0.00145488
0.0553662
0.0540418
0.051562
0.047947
0.0428124
0.0362202
0.0266417
0.0124318
-0.0109114
-0.0223958
-0.0330798
-0.0352829
-0.0252205
-0.0231088
-0.0141235
-0.0128903
-0.00840348
-0.00619806
-0.00307687
-0.00306798
0.0549691
0.0539437
0.0517167
0.0485471
0.0431811
0.0365881
0.0273109
0.0143976
-0.00522562
-0.0156636
-0.0245984
-0.0275193
-0.0197261
-0.0183625
-0.0119221
-0.0110334
-0.00723922
-0.00597162
-0.00259902
-0.00460619
0.0545927
0.0536957
0.051565
0.048747
0.0435426
0.0368155
0.0279984
0.0165065
-0.00031212
-0.00984672
-0.0177651
-0.0209685
-0.0158893
-0.0146838
-0.0100987
-0.00938262
-0.0061627
-0.0057159
-0.00203409
-0.0060141
0.0541943
0.0534015
0.051276
0.0486277
0.0438608
0.0372209
0.0286967
0.0184829
0.00395548
-0.00486191
-0.0122633
-0.0155583
-0.0126683
-0.0118697
-0.00848744
-0.00797825
-0.0052041
-0.00548254
-0.00144137
-0.00731338
0.05386
0.0531222
0.0510044
0.0483922
0.0439795
0.0377424
0.0292692
0.0202497
0.00762263
-0.000614551
-0.00773246
-0.0110452
-0.0100147
-0.00961654
-0.00700659
-0.00678724
-0.00436381
-0.00529714
-0.000901457
-0.00855874
0.0535659
0.0528669
0.0507508
0.0481315
0.0439457
0.0382909
0.0299812
0.0216695
0.010685
0.00298259
-0.00374015
-0.00743013
-0.00768083
-0.00761144
-0.0056753
-0.00577406
-0.00364762
-0.00516055
-0.000444529
-0.00970044
0.0533326
0.0526615
0.0505488
0.0479322
0.0438413
0.0387557
0.0309451
0.0228344
0.0131663
0.00589855
-0.000336827
-0.00435864
-0.00554066
-0.00583784
-0.00458899
-0.00497512
-0.00304969
-0.00506733
-6.806e-05
-0.0106822
0.0531407
0.0524883
0.0503746
0.0477611
0.0436814
0.0389791
0.0318574
0.0240441
0.0150389
0.00819006
0.00193868
-0.00203027
-0.0036319
-0.00446425
-0.00376249
-0.00432524
-0.00256869
-0.00501549
0.00023345
-0.011486
0.0530197
0.052367
0.0502471
0.0476363
0.0435686
0.0390156
0.0325272
0.025312
0.0166701
0.00998726
0.0035945
-0.000302534
-0.00226612
-0.00358632
-0.00310996
-0.00390086
-0.00221496
-0.00500302
0.000472492
-0.0120281
0.0529348
0.0522891
0.0501634
0.047552
0.0435112
0.0390126
0.0329531
0.0264285
0.018237
0.0114998
0.00498142
0.00109394
-0.00136814
-0.0030434
-0.00269468
-0.00363547
-0.00198709
-0.00502405
0.000649845
-0.012638
0.0528762
0.0521956
0.0500752
0.0474684
0.0434451
0.038981
0.0330996
0.0271363
0.0192261
0.0124482
0.00573127
0.00189826
-0.000908295
-0.00280566
-0.00252575
-0.00356712
-0.0018686
-0.0051502
0.000827854
-0.0137619
0.0722857
0.0478437
0.040124
0.0351704
0.0235632
0.0288418
0.0605105
0.049397
0.0437597
0.039307
0.0354194
0.0377025
0.0513349
0.0694876
-0.0172006
-0.0207892
-0.0234573
0.0156943
0.0235083
-0.00366533
0.0567297
0.04916
0.0454009
0.0418618
0.0399698
0.0410811
0.0508106
0.0649118
-0.117428
-0.0330278
-0.0209031
-0.0153677
-0.00158764
0.00736658
0.00499488
0.055674
0.05119
0.0465019
0.0426316
0.0397857
0.0378849
0.0418721
0.0415312
0.0243547
-0.0500324
-0.0561778
-0.048357
-0.0251815
-0.0189823
-0.0114884
-0.00318098
-0.00279874
0.00275395
0.0550059
0.0513183
0.0471853
0.0436495
0.0403753
0.0363716
0.0325532
0.0196717
-0.00157576
-0.0352929
-0.0614704
-0.0711285
-0.0559846
-0.0413813
-0.023239
-0.0175737
-0.0108175
-0.00489151
-0.00331585
0.00136017
0.0545084
0.05202
0.0482149
0.0444256
0.040704
0.0354526
0.0286441
0.0165352
-0.0169501
-0.0320273
-0.0504013
-0.0536359
-0.0428889
-0.0357096
-0.020265
-0.015897
-0.00977964
-0.00575667
-0.00333224
0.000146383
0.054464
0.0524812
0.0492095
0.0453645
0.0411311
0.0353414
0.0271461
0.0140045
-0.0120475
-0.0250608
-0.0405338
-0.0426996
-0.0353816
-0.0296227
-0.0172141
-0.0140118
-0.00883171
-0.00580935
-0.00314691
-0.00138438
0.0543378
0.0527004
0.0498974
0.0461774
0.0414639
0.0355121
0.0269276
0.0140049
-0.00854738
-0.0198478
-0.031603
-0.035471
-0.0269123
-0.0244769
-0.0144537
-0.0122351
-0.00770289
-0.00572589
-0.00282145
-0.00300164
0.0541586
0.0528823
0.0503265
0.0469928
0.0419175
0.035751
0.0271907
0.0150649
-0.00401568
-0.0143635
-0.0238286
-0.0277833
-0.0211121
-0.0195032
-0.0122628
-0.0105055
-0.00659517
-0.00553458
-0.00237066
-0.00453954
0.0539956
0.0529206
0.0505249
0.0475538
0.0425304
0.0361674
0.0276913
0.0165967
8.92131e-05
-0.00935537
-0.0174164
-0.0210981
-0.0167101
-0.0154141
-0.0103141
-0.00892415
-0.00557193
-0.00531732
-0.00182809
-0.00595053
0.0537553
0.05285
0.0505434
0.0477844
0.0431265
0.0367537
0.0283506
0.0182736
0.00390368
-0.00478448
-0.0120334
-0.0154143
-0.0129286
-0.012135
-0.00851276
-0.00753298
-0.00464844
-0.00510793
-0.00125464
-0.00725754
0.0535153
0.052715
0.0504884
0.047813
0.0434899
0.0373778
0.0289595
0.0199294
0.00738841
-0.000706103
-0.00748398
-0.0106583
-0.00981074
-0.00949276
-0.00684505
-0.0063258
-0.00383441
-0.00494051
-0.000730181
-0.00850769
0.0532649
0.0525413
0.0503711
0.0477303
0.0436255
0.0380561
0.0297548
0.0213773
0.0104233
0.00287582
-0.00341957
-0.00681295
-0.00713478
-0.00719717
-0.00535707
-0.00530597
-0.00314948
-0.0048252
-0.000287146
-0.00965218
0.0530521
0.0523805
0.0502536
0.0476516
0.0436313
0.0386021
0.0308003
0.0226267
0.0129635
0.00586147
6.35323e-05
-0.00360935
-0.00479847
-0.00523948
-0.00415003
-0.00449511
-0.00259001
-0.00475594
8.12546e-05
-0.0106358
0.0528681
0.0522317
0.0501342
0.047569
0.0435632
0.038899
0.0317732
0.0239027
0.0149091
0.00823026
0.0023779
-0.00125697
-0.00281528
-0.00378146
-0.00324394
-0.00386435
-0.002152
-0.00472849
0.000376802
-0.0114416
0.0527479
0.0521254
0.0500491
0.0475144
0.0435314
0.0390063
0.0324887
0.0252056
0.0165745
0.0100531
0.00400711
0.000423825
-0.00145838
-0.0028749
-0.00256483
-0.00344369
-0.0018375
-0.00473699
0.000610578
-0.0119846
0.0526775
0.052075
0.0500144
0.0474979
0.0435486
0.0390731
0.0329611
0.0263422
0.0181493
0.0115642
0.0053447
0.00174276
-0.000609655
-0.00232779
-0.0021328
-0.00318774
-0.00164012
-0.00477514
0.00078212
-0.0125962
0.0526533
0.0520218
0.0499823
0.0474757
0.0435461
0.0391049
0.0331533
0.0270728
0.0191478
0.0125191
0.00606562
0.00248782
-0.000193181
-0.00209883
-0.00195697
-0.00312518
-0.00153938
-0.00491335
0.000953267
-0.0137223
0.077693
0.0539689
0.0470126
0.0429445
0.0327988
0.0381333
0.0656074
0.0553918
0.0504514
0.0460601
0.0430382
0.0464033
0.0591796
0.0783028
-0.0147192
-0.0190658
-0.0223387
0.016339
0.0239133
-0.00353623
0.0617078
0.0549378
0.0518586
0.0488997
0.0475773
0.0491802
0.058392
0.0728652
-0.114057
-0.0307908
-0.0193237
-0.0143617
-0.00100277
0.00773299
0.00505448
0.0599576
0.0560753
0.0520792
0.0489838
0.0467117
0.0455088
0.0490458
0.05041
0.0330521
-0.0418787
-0.0506881
-0.0447457
-0.0233274
-0.0176058
-0.0106815
-0.00258455
-0.0025035
0.00281567
0.0583923
0.0552724
0.051838
0.048943
0.0462352
0.0429493
0.0394681
0.0273
0.0061652
-0.0278691
-0.0547023
-0.0646802
-0.0505299
-0.0386047
-0.021476
-0.0163591
-0.0100985
-0.00435995
-0.00303176
0.00143595
0.0570617
0.0550839
0.0517914
0.0485519
0.045427
0.0409749
0.0347155
0.0235157
-0.00990432
-0.0251369
-0.0438163
-0.0472389
-0.0384141
-0.0326582
-0.0186714
-0.0148263
-0.00911669
-0.00528212
-0.00306079
0.000222008
0.0562407
0.0546202
0.051755
0.0483811
0.0447408
0.0397964
0.0321982
0.0200342
-0.00573816
-0.0188166
-0.0347958
-0.0373295
-0.0315751
-0.0271264
-0.01585
-0.0130341
-0.00821376
-0.00537819
-0.00289625
-0.00131167
0.0555343
0.0541346
0.0516591
0.0483045
0.0441273
0.0390047
0.0309801
0.0189886
-0.00311204
-0.0144017
-0.0266136
-0.0310622
-0.0240297
-0.0224888
-0.013234
-0.0113546
-0.007141
-0.00533494
-0.00258616
-0.00293025
0.0549721
0.0538236
0.0514891
0.0484308
0.0438074
0.0384076
0.0303901
0.0190809
0.000490056
-0.00985596
-0.0198174
-0.0243994
-0.0189446
-0.0179197
-0.0111915
-0.00972362
-0.00608325
-0.00517584
-0.00215187
-0.0044737
0.0545566
0.0535405
0.0512611
0.0484755
0.0437911
0.0379511
0.0301732
0.0197916
0.00374265
-0.00574182
-0.0142576
-0.0185399
-0.0150219
-0.014166
-0.00939415
-0.00823174
-0.00508862
-0.00497914
-0.00162243
-0.00588349
0.0541731
0.05329
0.0510313
0.0483799
0.0439742
0.0378759
0.0302083
0.0207731
0.00680932
-0.00193157
-0.00952133
-0.01343
-0.0115964
-0.0111429
-0.00773742
-0.00691753
-0.00419917
-0.00479414
-0.00106035
-0.00718774
0.0538643
0.0530682
0.0508528
0.0482354
0.0441042
0.0382245
0.0303563
0.0218415
0.0096371
0.00151819
-0.00548366
-0.00908447
-0.0087278
-0.00867179
-0.00618036
-0.00576925
-0.00341978
-0.00465336
-0.00055131
-0.00844138
0.0535814
0.0528563
0.0506815
0.0480688
0.0441021
0.0387479
0.0308156
0.0228134
0.0121403
0.0046083
-0.00182622
-0.00551797
-0.00620861
-0.00648213
-0.00475852
-0.00479311
-0.00275811
-0.00455401
-0.000120089
-0.00959212
0.0533537
0.0526762
0.0505404
0.0479507
0.0440309
0.0391668
0.0316183
0.023717
0.0142857
0.00721953
0.00135922
-0.00250233
-0.00396539
-0.00457513
-0.00358923
-0.00400988
-0.00221233
-0.0044928
0.000239772
-0.0105812
0.0531576
0.0525147
0.0504087
0.0478514
0.0439228
0.0393832
0.0324377
0.0247631
0.0159475
0.00931547
0.00346263
-0.00028401
-0.00203546
-0.00313112
-0.00270474
-0.00340322
-0.00178334
-0.00447188
0.000527609
-0.0113911
0.0530151
0.0523905
0.0503079
0.0477802
0.0438585
0.0394351
0.0330552
0.0259133
0.0174144
0.0109478
0.00494366
0.00130305
-0.000710942
-0.00222849
-0.00204122
-0.00298814
-0.0014757
-0.00448729
0.000753414
-0.0119385
0.0529243
0.0523196
0.050254
0.0477457
0.0438469
0.0394565
0.0334587
0.0269503
0.0188615
0.0123439
0.00618536
0.00257007
0.000126209
-0.00167721
-0.00160915
-0.00273802
-0.00128462
-0.00452893
0.000922137
-0.0125512
0.0528979
0.0522672
0.0502187
0.0477233
0.0438383
0.0394693
0.0336172
0.0276342
0.0198032
0.0132509
0.00686923
0.00330664
0.000553771
-0.00144366
-0.00142974
-0.00267666
-0.00118692
-0.00466609
0.00109256
-0.0136758
0.0829857
0.0593609
0.053151
0.0502634
0.0404438
0.0463622
0.0707849
0.0610342
0.0565368
0.0525619
0.0497744
0.0532579
0.0664589
0.0860494
-0.01219
-0.0173214
-0.021195
0.0170121
0.0243468
-0.00338477
0.0666473
0.0602803
0.0573695
0.0547884
0.0538045
0.056003
0.0653514
0.079964
-0.110389
-0.0283772
-0.0176283
-0.0132876
-0.000417999
0.00812098
0.00517036
0.064553
0.0610047
0.0573046
0.0546201
0.0526942
0.052203
0.0556843
0.0581005
0.0404581
-0.0349448
-0.0460476
-0.0415496
-0.021102
-0.0160361
-0.00976745
-0.00200109
-0.00219691
0.00292863
0.0626654
0.059906
0.0568417
0.0543051
0.0519358
0.0493068
0.046068
0.0341692
0.0128409
-0.0216923
-0.0491064
-0.059963
-0.0461041
-0.0356132
-0.0192911
-0.0148359
-0.00921048
-0.00379788
-0.00273727
0.00152926
0.0610091
0.0593958
0.0564601
0.0535774
0.0507664
0.0469077
0.0409363
0.0299913
-0.00413822
-0.019737
-0.0388014
-0.0424983
-0.034228
-0.0293103
-0.01651
-0.0133649
-0.00825376
-0.00473379
-0.00277525
0.000305806
0.05976
0.0584492
0.0559558
0.0529516
0.0496144
0.045166
0.0377874
0.0258807
-0.000387731
-0.0137837
-0.0300377
-0.0326098
-0.0273991