/*--------------------------------*- C++ -*----------------------------------*\
  =========                 |
  \\      /  F ield         | OpenFOAM: The Open Source CFD Toolbox
   \\    /   O peration     | Website:  https://openfoam.org
    \\  /    A nd           | Version:  10
     \\/     M anipulation  |
\*---------------------------------------------------------------------------*/
FoamFile
{
    format      ascii;
    class       surfaceScalarField;
    location    "2000";
    object      phi;
}
// * * * * * * * * * * * * * * * * * * * * * * * * * * * * * * * * * * * * * //

dimensions      [0 3 -1 0 0 0 0];

internalField   nonuniform List<scalar> 
155308
(
-0.200472
2.14293
110.861
0.294919
1.2624
-1.91703
1.85426
90.0259
-4.10732
1.27209
0.495465
0.485426
1.1909
-1.73728
1.7209
87.1151
-4.07297
1.15312
0.539859
0.557288
0.96408
-0.456829
0.456486
22.0755
-0.532316
-1.51348
-0.340383
0.329
17.2059
1.41687
0.714236
0.280882
-0.850491
15.9203
1.35619
22.5102
8.97011
-22.5833
465.245
38.0977
-8.9843
8.57441
-38.8397
433.76
36.6503
-8.21907
8.3428
-36.9057
407.818
0.065464
-8.52602
8.43437
-31.5594
396.654
-0.0263634
16.5752
15.974
-1.07365
-8.35922
8.23406
-24.7293
395.372
-0.70914
11.5934
11.8943
2.10198
-8.09568
7.78037
-24.336
374.191
2.92946
11.9203
9.98866
-22.2144
49.4324
355.167
-11.856
-0.845603
-9.49607
-3.5898
1.07392
0.162294
0.280143
1.132
-1.75192
2.03812
18.4147
82.0161
-1.82037
-7.51906
-6.70291
-1.39201
-0.0923566
0.041583
-0.101238
-0.735523
0.644866
29.8719
0.0856165
-1.063
1.17851
-0.113166
64.0991
0.00705761
0.167874
-1.27513
1.40664
-0.243077
72.1742
0.356931
-1.54753
6.3403
-0.347418
324.233
0.249808
0.322255
-0.0459795
-1.6655
-1.56053
-1.616
-0.197564
-1.63036
1.76069
0.0915644
80.7135
0.281403
-7.04464
6.87063
-1.13294
336.681
0.431505
0.449353
0.23833
35.8783
-86.032
1905.7
22.131
39.4762
18.7769
31.5212
34.8489
-140.147
1848.35
38.673
37.9602
33.599
33.034
35.5291
-127.116
1769.88
36.9185
34.8076
32.0019
29.4696
35.0938
-113.608
1723.6
31.5209
27.3965
26.4034
28.0221
34.4085
-109.125
1684.36
25.2229
26.8082
28.7007
27.4419
36.661
-93.2926
1622.77
24.3598
-16.9775
28.5401
62.0297
-2.9031
-71.7714
1567.49
-2.98916
24.1707
28.7536
-49.4241
-45.1473
88.7517
75.9671
-16.706
32.8564
379.861
4.01022
-3.95987
3.08662
-2.23976
-17.2314
-7.61711
-8.14173
3.63119
42.7921
1.47075
-6.6637
-5.41607
2.16472
5.89795
-2.04865
342.411
1.09363
-6.44563
6.83349
-1.3082
356.541
0.887662
-7.01278
7.16855
-0.982949
362.257
7.76046
-1.9316
1491.48
0.379164
0.56668
-0.272551
-0.0617882
-7.35701
-7.58151
-7.40973
-7.69215
7.85697
7.71001
7.80539
0.309638
7.80345
-0.498452
370.343
-2.22972
1475.95
1.00823
1.08589
0.544628
0.0447913
-7.77039
-7.77105
-7.84398
-8.21279
36.3787
-82.4774
1941.6
35.6808
-135.176
1916.55
36.5443
-123.451
1858.78
36.2834
-110.8
1805.84
36.4169
-106.37
1758.08
39.616
-91.0563
1708.04
-2.57002
-72.6633
1649.72
2.04966
31.2412
28.3876
-30.5859
4.861
29.4659
388.479
-3.42043
-2.08883
1.97888
89.8046
2.3091
-2.22914
0.687554
0.255994
18.3018
0.644195
-0.474636
-0.106601
3.99441
71.881
1.7197
-0.628612
-0.404473
-0.705597
-0.519961
-0.0431208
-0.516972
-4.64502
12.578
9.71285
43.9938
322.698
-1.75892
-4.66277
-1.89458
30.6431
-8.50181
1521.75
1.60222
1.44325
1.96904
1.61001
-5.31456
-4.99222
-8.83886
-9.73316
31.6153
-6.78907
1557.74
1.01119
0.917222
1.31688
1.1829
32.3466
-5.4223
1560.6
0.561671
-0.283369
0.998509
1.64586
32.9166
-3.91686
1558.19
33.3214
-3.27211
1565.08
1.02882
0.250145
-0.384785
0.868958
-2.60138
1545.94
36.7997
-78.04
1970
36.1831
-128.397
1962.97
37.2399
-117.963
1921.86
37.273
-106.246
1875.2
37.9259
-102.063
1824.69
42.498
-87.5196
1772.06
60.8172
-74.9652
1713.25
13.921
-79.8124
1708.17
-17.2014
1.60793
51.1553
35.5836
13.7206
14.8158
14.9486
18.5782
13.2823
-20.051
409.02
1.55689
11.6667
-24.0531
379.821
1.42599
11.933
12.1158
-11.9468
0.759072
-2.42713
2.55494
91.9752
-0.126974
0.364281
-9.00026
13.1418
12.9543
362.694
-10.4632
2.41101
-1.4396
-38.9263
-11.5215
12.2657
39.3668
380.574
32.4464
-8.22126
1590.05
-27.0921
-17.7529
75.626
45.9891
-13.5618
-13.7338
0.477828
-4.69947
33.2555
-9.14025
1591.71
33.8013
-7.96016
1615.81
34.1771
-6.53966
1612.83
34.5585
-4.96751
1610.88
34.7983
-3.9835
1615.12
-2.89802
1598.26
37.1476
-73.1063
1994.08
36.5625
-120.46
1995.13
37.7603
-111.241
1967.96
38.103
-100.488
1931.27
39.5514
-96.6792
1883
46.058
-82.1331
1826.45
58.8438
-65.7401
1772.1
58.6635
-73.225
1752.35
49.9142
-91.5061
1719.37
20.4374
22.1869
23.208
24.7807
47.2909
-100.077
1648.78
23.9664
24.6673
26.3583
27.3681
38.6414
-91.073
1630.56
27.2713
21.6953
29.3905
25.9133
44.3109
-19.5043
1690.9
-12.8463
-32.6371
10.1295
4.45613
40.0306
18.3091
1635.6
-38.4678
-50.1542
28.3106
49.537
33.3953
-6.02247
1666.71
35.4241
-8.88085
1650.94
35.7938
-8.29516
1664.48
35.8624
-6.97611
1657.24
35.9937
-5.42609
1653.35
36.026
-4.31107
1655.5
-3.06558
1639.64
37.4602
-67.8188
2015.34
36.9005
-111.763
2018.31
38.1623
-103.65
2002.8
38.8399
-93.9063
1974.88
41.624
-90.4176
1931.99
52.5767
-82.8571
1879.39
58.7838
-76.8916
1845.14
59.2723
-78.8623
1813.36
51.076
-88.5769
1780.2
48.3916
-95.9999
1725.67
40.0395
-86.4337
1718.71
45.4545
-17.4095
1697.1
38.98
18.1908
1711.27
33.6275
1.81176
1656.41
37.2228
-6.15658
1645.91
37.5147
-8.11292
1706.03
37.3533
-6.99564
1695.28
37.2247
-5.59042
1689.33
37.1363
-4.47691
1689.04
-3.15234
1673.97
37.7146
-62.3105
2034.35
37.225
-102.628
2036.96
38.4802
-95.4338
2029
39.4065
-86.7354
2009.15
43.2478
-83.6616
1972.91
56.9241
-69.1447
1914.24
59.5153
-65.6294
1886.51
59.005
-74.8972
1855.45
51.5862
-82.8333
1830.78
49.0636
-90.314
1784.32
41.2148
-80.5459
1777.18
46.642
-15.4198
1752.82
40.3982
17.676
1761.13
39.1316
1.95861
1757.5
38.7967
-5.70071
1752.45
38.9575
-7.7023
1742.11
38.6258
-6.76878
1728.66
38.3484
-5.51763
1720.95
38.2031
-4.45049
1718.22
-3.15775
1703.41
37.9317
-56.6108
2051.29
37.5099
-93.1887
2053.43
38.7281
-86.7539
2048.78
39.7578
-79.1229
2036.97
43.7445
-76.5604
2007.07
56.6111
-63.7075
1956.53
58.6804
-61.5494
1936.8
58.201
-70.5709
1900.94
51.776
-77.2176
1876.02
49.4789
-83.6039
1833.51
42.3837
-73.9746
1825.4
47.5637
-13.5275
1800.1
42.0928
16.8831
1803.44
40.5382
2.1488
1795.87
40.2789
-5.10499
1787.05
40.2137
-7.1416
1773.9
39.7564
-6.40813
1758.31
39.4124
-5.32564
1748.63
39.1704
-4.34749
1743.89
-3.10761
1729.12
38.1352
-50.7262
2066.54
37.7676
-83.505
2068.49
38.9263
-77.7974
2064.75
39.9985
-71.1636
2059.3
43.7325
-69.1228
2035.99
55.3467
-57.8665
1994.63
57.5759
-55.8542
1979.13
56.2771
-65.4961
1945.95
51.48
-71.6256
1917.68
49.7061
-76.2247
1877.17
43.4937
-66.9278
1867.5
48.461
2.71639
1822.18
43.6706
28.9944
1823.88
41.8817
2.31892
1830.61
41.5611
-4.45034
1818.02
41.307
-6.44608
1802.25
40.8187
-5.90108
1784.81
40.3731
-4.9774
1773.29
40.0448
-4.10339
1766.66
-2.96977
1751.85
38.3163
-44.7333
2080.53
38.0115
-73.5833
2082.33
39.0894
-68.588
2078.83
40.136
-62.8839
2077.02
43.4094
-61.3878
2060.94
51.7386
-43.1463
2031.8
55.6251
-41.4757
2020.63
52.4521
-60.2335
1987.63
50.5699
-64.8047
1953.7
49.7518
-68.3105
1916.99
44.4929
-59.5163
1905.69
48.7947
-51.0474
1946.72
44.7935
-23.5043
1938.94
43.0837
2.40139
1862.43
42.6086
-3.80294
1846.29
42.3789
-5.71829
1827.7
41.7628
-5.31697
1808.69
41.2979
-4.55122
1795.32
40.83
-3.79896
1786.9
-2.77615
1772.03
38.4785
-38.5802
2093.38
38.2428
-63.471
2095.07
39.2291
-59.1967
2091.87
40.2304
-54.3609
2091.33
43.2319
-53.2012
2081.2
47.4842
-38.1829
2052.95
51.4804
-23.518
2044.2
49.1183
-39.5417
2024.26
49.703
-57.1757
1987.45
49.6821
-59.7451
1954.37
45.256
-51.7628
1941.45
44.0153
-44.152
1916.13
45.5915
-20.1338
1898.66
44.1991
2.35688
1891.84
43.3135
-3.10699
1872.32
43.2577
-4.86485
1850.27
42.5927
-4.65619
1830.01
42.0651
-4.03384
1814.85
41.5328
-3.38767
1804.63
-2.50222
1789.88
38.6245
-32.367
2105.43
38.4605
-53.2249
2106.89
39.4992
-36.2923
2104.16
40.4689
-21.1384
2103.4
43.1616
-16.239
2095.65
46.5109
-14.3928
2077.59
47.7131
-20.0068
2069
48.1791
-34.2018
2054.8
49.3994
-49.3655
2019.82
49.563
-50.8309
1990.56
45.8179
-43.7255
1975.62
45.0209
-37.1814
1949.11
46.2976
-16.8131
1929.98
45.0544
2.22698
1918.89
43.4901
-2.33082
1896.11
43.8837
-3.90035
1869.87
43.3112
-3.91408
1848.77
42.6718
-3.45354
1831.96
42.1511
-2.91173
1820
-2.1698
1805.41
38.7565
-26.0335
2116.7
38.6729
-42.7907
2117.93
39.245
-29.1735
2115.67
40.4693
-16.9646
2114.11
42.8647
-14.0565
2103.55
46.0999
-12.927
2097.23
47.3002
-16.1008
2091.7
48.1094
-27.6857
2080.21
49.0766
-39.3566
2049.55
49.3461
-40.5773
2024.12
46.442
-35.4179
2007.58
45.8553
-30.0222
1979.95
46.9398
-13.496
1958.36
45.7193
1.9265
1942.94
43.2702
1.14944
1892.36
44.4472
-2.27355
1865.21
43.9182
-3.14887
1864.96
43.241
-2.80562
1846.66
42.6797
-2.39607
1833.05
-1.81613
1818.58
38.8771
-19.6421
2127.34
38.8639
-32.2852
2128.38
39.4071
-22.0158
2126.55
40.7434
-12.7917
2124.76
43.6282
-10.4148
2119.06
45.5464
-9.72542
2121.06
46.5981
-12.3613
2112.8
47.6723
-21.0375
2101.58
48.5073
-29.9031
2075.75
49.0309
-30.8461
2053.54
46.9914
-26.8565
2035.7
46.6049
-22.7188
2006.97
47.4687
-10.1367
1982.55
46.3965
1.54961
1963.07
45.7499
0.903809
1937.68
44.9537
-1.70121
1910.12
44.3461
-2.38501
1878.55
43.7056
-2.14666
1858.78
43.1128
-1.84958
1843.57
-1.38735
1829.42
38.9872
-13.1634
2137.44
39.0382
-21.6313
2138.23
39.5282
-14.7403
2136.89
40.6387
-8.58292
2135.6
43.2081
-8.7917
2133.53
44.5293
-8.40106
2137.65
45.6613
-8.54616
2129.74
46.9442
-14.2273
2119.8
47.9521
-20.1346
2097.89
48.5557
-15.0685
2077.21
47.3625
-12.1618
2057.56
47.2799
-15.2631
2027.87
47.8912
-6.79715
2001.55
47.0201
1.08395
1978.87
46.267
0.648145
1951.37
45.3408
-1.12657
1921.2
44.7211
-1.59438
1889.17
44.0615
-1.42176
1868.04
43.4458
-1.24955
1851.55
-0.935201
1837.83
39.0795
-6.60762
2147.03
39.2078
-10.8569
2147.5
39.6329
-7.40605
2146.52
40.4789
-4.32376
2145.61
42.366
-4.51101
2142.68
43.441
-4.36593
2145.22
44.6469
-4.39051
2142.46
46.0776
-7.19294
2134.99
47.2376
-7.30419
2116.27
47.8516
-4.6476
2095.01
47.8519
-6.12099
2072.49
47.8971
-7.67184
2042.41
48.2108
-3.38201
2014.91
47.4529
0.587646
1989.87
46.6564
0.345134
1960.84
45.734
-0.557757
1928.68
45.0409
-0.797914
1896.59
44.3056
-0.701863
1874.49
43.6737
-0.633408
1856.85
-0.478402
1843.7
39.1512
2155.51
39.3496
2154.97
39.7115
2153.88
40.3714
2152.93
41.4582
2151.52
42.4545
2151.54
43.6284
2149.76
45.1627
2144.65
46.4373
2128.48
47.6692
2105.43
48.3011
2079.85
48.4383
2050.05
48.4277
2022.16
47.7654
1995.58
46.9815
1965.66
45.999
1932.28
45.1715
1900.59
44.4382
1877.91
43.7889
1859.4
1846.95
-110.713
0.363425
2.07927
-0.262559
110.585
-92.931
-1.93409
1.54161
1.89827
-1.54658
92.9718
-89.5654
1.51152
-1.8295
1.82012
-1.6261
89.6894
-80.2374
1.40558
-1.70107
1.60761
-1.69769
80.623
-75.4763
-1.59361
1.45938
-0.995578
75.3632
1.24282
-68.0622
-1.3215
1.23801
-1.48183
68.233
1.39459
0.824181
-465.121
8.59978
-0.871299
465.029
3.36582
-434.68
-8.58615
8.43569
-3.30534
434.77
3.93416
-407.618
-8.24044
8.08091
-3.59271
407.436
2.64901
-396.999
-7.91876
7.89341
-2.17187
396.547
0.226953
-398.88
-7.91814
7.6952
-0.48529
399.362
2.51644
-376.614
-7.23823
6.82556
-1.82055
376.331
-357.814
7.35768
6.97849
-16.6466
356.719
7.70524
1.27762
1.54358
-7.12124
-85.463
5.52453
-2.69712
2.44161
-5.59182
85.7858
-29.8247
0.650822
-0.754476
29.8284
0.0998987
-64.0049
-1.06312
1.17785
-0.107853
63.9915
0.00648402
-71.8199
0.158523
-1.26939
1.3988
-0.203833
71.7358
-323.329
0.347725
-1.5478
6.33727
-0.25128
322.711
0.267943
0.34469
-0.0627046
-1.6815
-1.53904
-1.59686
-80.3887
-0.215588
-1.61146
1.75216
0.155065
80.3085
0.288169
-7.03108
-336.399
6.86196
-0.97344
336.15
0.433928
0.440726
0.228153
34.9515
-1.53938
1905.83
0.712327
2.5775
-0.971288
-1.3278
34.6874
-3.48628
1848.19
3.31351
3.58552
-1.4139
-1.57734
33.9603
-1.82504
1769.17
3.5358
2.87465
-1.52798
-1.62867
33.1085
0.386128
1724.89
2.0048
1.13066
-1.96987
-1.99027
31.5599
3.03492
1687.17
0.475665
0.426025
-2.41982
-2.7812
31.7351
-8.85524
1627.44
1.35797
9.10128
-3.19955
-3.2576
10.5315
-9.04143
1549.5
11.2802
7.04758
7.25419
16.0629
15.4286
-4.15963
-4.67919
-373.093
8.91522
-2.03109
366.948
2.99857
2.67078
2.16527
1.95789
-49.5274
-7.62699
49.914
0.980543
6.25983
2.03287
-5.75533
-342.2
5.97313
-1.70629
341.656
0.694596
-356.201
-6.47631
6.85397
-0.51957
355.648
0.385187
-7.08437
-362.19
7.2174
-0.0772281
361.749
7.75733
-0.244224
1490.12
-0.120262
0.0940423
0.252272
0.350051
-7.37839
-7.63501
-7.40135
-7.66611
7.85438
7.70312
7.8009
-0.134158
-370.286
7.85045
0.161739
370.165
-1.13832
1475.18
0.680025
0.839085
0.671948
0.0657891
-7.78779
-7.79639
-7.83455
-8.21112
35.4371
-1.95406
1941.68
35.543
-3.2983
1916.26
35.14
-1.21849
1858.58
34.3821
0.702729
1806.28
33.2841
3.18245
1759.03
35.1211
-8.03641
1705.39
12.1363
-4.09403
1640.21
11.9901
7.6933
7.87145
-397.094
0.943875
10.6591
-1.91462
399.542
-92.1813
-0.735445
-2.63136
2.55887
1.51421
91.475
-68.5594
-2.10901
1.7382
-0.777536
68.6762
1.03164
0.986045
-0.337135
-73.4753
-7.47502
77.4404
1.89984
0.711471
0.43755
0.585128
-0.39393
-0.0702583
-0.308817
32.4658
-58.137
1473.86
-1.59763
-1.53911
-6.94721
-7.49164
17.7015
3.16412
5.1628
3.74263
-350.199
-355.115
-376.788
-378.286
30.7762
-5.52093
1523.2
0.656556
0.345633
2.65708
2.09695
31.7862
-4.68894
1558.72
-0.0458791
-0.197028
1.54133
1.40016
32.4485
-3.53645
1562.4
-0.588162
-1.43674
1.21425
1.89078
32.9442
-2.23019
1559.68
33.3425
-1.81837
1566.2
0.2769
-0.523003
-0.40869
0.948508
-1.41141
1546.35
35.8289
-2.16185
1969.97
36.053
-3.24941
1962.7
35.9363
-0.927358
1921.69
35.4585
1.04692
1875.33
34.8002
3.41286
1825.12
37.5365
-7.62606
1768.91
40.3062
-6.28443
1712.67
10.1405
16.8581
1710.55
-1.46681
-3.2301
-5.95007
-8.33123
9.81719
9.8568
10.2333
-5.63417
10.5713
4.84902
412.466
-412.112
-381.192
0.497731
-10.4326
10.1303
-0.175647
381.172
-365.242
1.95882
9.76285
-3.9755
365.442
2.05065
-0.0983224
0.0865061
-9.985
7.11321
-8.83427
-361.696
3.51513
-46.4547
374.576
18.2236
4.91458
8.64244
9.33301
-82.7081
1588.75
30.3527
29.0346
3.69501
5.94984
-6.30492
-6.57779
-9.11943
-9.17253
-386.138
-377.74
-394.218
-395.135
28.2154
-57.1481
1570.18
32.3521
0.596819
1581.45
33.9001
-5.89191
1615.46
34.2554
-4.84603
1613.78
34.569
-3.44833
1611.79
34.6918
-2.64092
1615.82
-1.72495
1598.56
36.1849
-2.23447
1994
36.4472
-3.21961
1994.84
36.538
-0.854855
1967.79
36.3709
1.21245
1931.27
36.1934
3.51282
1883.08
40.1713
-6.76453
1821.61
42.0485
-7.09983
1771.04
41.0099
12.5444
1757.7
42.9199
15.0179
1721.2
-4.16007
-2.39807
-6.81599
-5.38387
42.9794
5.75804
1648.18
-0.0293427
1.55079
-3.69749
-3.04269
39.5174
-18.5923
1638.41
3.78749
10.1539
-1.11779
1.38647
32.8841
-49.4011
1632.64
46.0716
55.7456
6.86775
5.60443
8.76735
-92.1701
1669.18
22.6807
-53.5127
1649.16
33.281
0.581087
1640.35
35.719
-6.48385
1662.64
35.8228
-5.54637
1657.83
35.9434
-4.14477
1653.93
36.0286
-3.1469
1655.92
-2.00272
1639.97
36.5371
-2.26903
2015.25
36.7912
-3.21927
2018.06
37.0174
-0.943356
2002.66
37.1335
1.14745
1974.83
37.538
3.42462
1931.68
42.4266
2.45444
1865.28
42.0493
7.61343
1830.8
42.0682
16.6712
1809.22
43.9855
12.7855
1780.52
44.2087
5.52003
1725.68
41.2004
-16.6827
1719.81
34.9167
-46.8653
1700.85
11.902
-86.9474
1729.06
16.9232
-107.659
1705.53
34.7431
-58.1376
1686.81
37.3791
-6.57201
1703.48
37.252
-5.8144
1695.68
37.2313
-4.49261
1689.7
37.1972
-3.45946
1689.38
-2.22281
1674.29
36.8586
-2.26399
2034.24
37.1049
-3.1713
2036.66
37.4172
-1.04539
2028.79
37.7492
0.947869
2009.01
38.5497
3.0865
1972.45
43.3575
2.19245
1909.69
41.1257
6.00791
1890.35
43.1088
14.1098
1856.03
44.8005
11.1539
1830.72
45.1055
5.071
1784.47
42.5512
-15.0227
1778.08
36.7171
-43.5385
1755.33
16.6163
-82.0146
1776.3
15.5535
-101.164
1752.07
36.3125
-54.1515
1727.71
38.8803
-6.37809
1739.34
38.6417
-5.83385
1728.91
38.4736
-4.64263
1721.27
38.2063
-3.63131
1718.66
-2.39913
1703.69
37.1578
-2.19004
2051.11
37.3941
-3.06228
2053.08
37.7571
-1.17069
2048.54
38.2351
0.676586
2036.76
39.1647
2.66945
2006.56
44.0622
1.53715
1952.28
41.8383
4.6754
1940.36
43.9744
12.0456
1900.87
45.4389
9.60785
1876.1
45.803
4.53987
1833.68
43.6658
-13.4551
1825.97
38.8137
-39.9444
1801.36
27.5716
-36.4644
1769.13
19.336
-56.0738
1759.01
37.909
-50.1675
1764.49
40.1959
-6.01934
1771.26
39.8938
-5.64172
1758.42
39.54
-4.60958
1748.95
39.234
-3.66101
1744.23
-2.48285
1729.42
37.4385
-2.11175
2066.36
37.6601
-2.89434
2068.1
38.0465
-1.23312
2064.43
38.6254
0.406647
2058.99
39.6643
2.19391
2035.42
44.2849
0.859613
1990.69
42.6001
3.59605
1981.9
44.3084
10.0377
1946.25
45.8671
8.05883
1917.67
46.3394
4.01006
1877.23
44.7165
-11.9343
1867.61
38.3083
-76.1261
1864.77
38.7918
-73.1869
1860.12
23.182
-51.3866
1841.53
39.3642
-45.5138
1797.18
41.3463
-5.53488
1799.78
40.8957
-5.31246
1784.93
40.441
-4.44256
1773.57
40.1095
-3.6003
1766.93
-2.49873
1752.15
37.6888
-1.9463
2080.25
37.9075
-2.66554
2081.89
38.301
-1.23286
2078.43
38.9308
0.149227
2076.65
40.0052
1.68938
2060.37
43.2931
4.76494
2024.61
43.0447
7.26819
2017.2
44.0098
7.42573
1989.28
46.0469
5.94033
1953.79
46.7393
3.43801
1916.87
45.5312
-10.4331
1905.39
42.1839
-24.2711
1898.21
40.8722
-18.4741
1885.53
26.4153
-45.6867
1871.18
40.3431
-40.2612
1827.11
42.2872
-4.82015
1825.04
41.7768
-4.83834
1808.72
41.2425
-4.12869
1795.54
40.8949
-3.39442
1787.04
-2.4038
1772.28
37.9129
-1.76792
2093.1
38.1499
-2.38711
2094.55
38.5354
-1.17066
2091.43
39.1704
-0.0379019
2090.88
40.2515
1.22483
2080.58
41.9583
3.67753
2052.33
43.1854
5.83491
2044.41
43.8245
6.04156
2025
46.1412
4.94531
1986.12
47.0311
2.94061
1953.98
46.1118
-8.96765
1940.9
44.4791
-21.028
1914.52
42.2648
-16.0459
1898.45
29.0904
-39.3949
1898.72
39.9543
-34.0772
1855.28
42.903
-3.56242
1846.07
42.6048
-4.21788
1829.69
42.0082
-3.71242
1815.03
41.5981
-3.10024
1804.75
-2.23113
1790.11
38.129
-1.52646
2105.09
38.3701
-2.0454
2106.31
38.7576
-1.0245
2103.62
39.3951
-0.150995
2102.87
40.5845
0.880255
2094.81
41.9876
2.84676
2077.02
43.3951
4.69428
2068.74
44.2848
4.99697
2054.95
46.3222
4.11693
2018.61
47.2431
2.42728
1990.15
46.6411
-7.51953
1974.77
45.3396
-17.6339
1947.02
43.5013
-13.4315
1929.21
31.3742
-32.6211
1924.24
38.4553
-25.0412
1879.99
43.068
0.133986
1861.56
43.2578
-3.46202
1847.83
42.6768
-3.2211
1832.05
42.1538
-2.72837
1820.15
-1.98759
1805.55
38.332
-1.27816
2116.35
38.5688
-1.71308
2117.36
38.9715
-0.872363
2115.11
39.6461
-0.153298
2113.44
41.3303
-1.57284
2104.32
42.0889
-0.263147
2099.58
43.5467
3.57567
2091.36
44.8195
3.90714
2080.03
46.3853
3.28347
2048.81
47.3582
1.92784
2023.65
47.0719
-6.05928
2006.4
46.0315
-14.1922
1977.55
44.6467
-10.7893
1957.11
33.8543
-26.1081
1947.22
36.2526
-42.3357
1907.26
43.3023
-22.8569
1881.15
43.7974
-2.77486
1863.78
43.2451
-2.64995
1846.64
42.6819
-2.25703
1833.14
-1.64814
1818.65
38.5157
-0.989039
2126.95
38.7611
-1.30145
2127.72
39.1714
-0.698374
2125.96
39.8696
-0.174491
2124.09
42.0311
-1.18152
2116.51
42.1356
-0.333566
2121.02
43.5415
2.50829
2112.46
44.9638
2.87472
2101.19
46.3362
2.47273
2075.19
47.4246
1.44982
2052.93
47.4247
-4.56261
2034.2
46.7051
-10.6915
2004.19
45.6298
-8.14122
1980.97
36.885
-19.7085
1965.42
37.0456
-31.8097
1927
43.9355
-17.1047
1897.47
44.3525
-2.10066
1877.46
43.7088
-2.00548
1858.78
43.115
-1.72545
1843.63
-1.29506
1829.51
38.69
-0.678236
2137.04
38.9437
-0.901202
2137.58
39.351
-0.499842
2136.29
40.0085
-0.151765
2134.92
41.5843
0.442273
2130.33
42.0673
1.01446
2135.82
43.4304
1.52408
2129.37
44.9141
1.86431
2119.33
46.3136
1.67822
2097.28
47.4933
0.992859
2076.49
47.8008
-3.0384
2055.73
47.306
-7.1601
2024.83
46.5194
-5.44707
1999.65
40.0741
-13.1881
1978.79
39.8989
-21.3202
1941.06
44.7045
-11.4777
1910.77
44.7914
-1.41872
1888.4
44.0643
-1.37435
1868.14
43.4476
-1.18726
1851.63
-0.888564
1837.89
38.854
-0.363687
2146.63
39.1065
-0.475687
2146.82
39.5126
-0.256279
2145.87
40.1219
-0.0633844
2144.92
41.0332
0.179435
2142.03
41.9804
0.433581
2144.85
43.2651
0.698136
2142
44.7851
0.900525
2134.44
46.2994
0.858078
2115.58
47.5283
0.523423
2094.25
48.0078
-1.51687
2070.49
47.8453
-3.57618
2038.99
47.3841
-2.72822
2012.66
43.1955
-6.65045
1987.52
42.871
-10.7338
1950.58
45.353
-5.77298
1920.49
45.0456
-0.701867
1896.18
44.3079
-0.686064
1874.54
43.675
-0.602189
1856.9
-0.447436
1843.75
39.0062
2155.07
39.2408
2154.26
39.6379
2153.22
40.2173
2152.29
41.0026
2150.91
41.9187
2151.06
43.1115
2149.27
44.6384
2144.02
46.2296
2127.75
47.5061
2104.68
48.169
2077.67
48.3131
2046.33
48.153
2019.59
46.2977
1990.79
45.6761
1955.55
45.8124
1926.37
45.1759
1900.53
44.4404
1877.96
43.7902
1859.45
1847
-110.527
-0.32805
2.0717
0.356064
110.476
-1.9249
-92.9594
-0.114946
0.137426
92.9758
1.88607
-89.735
-0.0942631
-1.83308
1.81491
0.0738218
89.7736
-80.7889
-0.174028
-1.68271
1.59569
0.185538
80.8644
-75.5428
-1.65863
1.45851
0.350192
75.505
-0.11225
-68.3791
-1.31817
1.25258
0.151123
68.405
-0.111363
-1.11535
-464.919
8.57068
1.17657
464.744
-1.01827
-434.639
-8.56476
8.42101
1.28968
434.511
-0.758223
-407.21
-8.23206
8.02765
1.06531
407.108
-1.43549
-396.223
-7.86183
7.86346
1.63267
396.024
-1.66364
-399.141
-7.92153
7.70757
2.18888
398.83
-1.96264
-376.002
-7.29157
6.81647
2.70226
375.738
-0.725959
-356.45
5.84529
4.75413
356.27
-0.847592
-1.3146
-1.18283
-6.34799
-85.8731
-1.68384
-1.3348
1.46296
1.51942
85.9094
-29.8149
0.646548
-0.749858
29.8278
0.0904242
-63.9486
-1.06581
1.17049
-0.13097
63.9675
0.00738914
-71.6478
0.182211
-1.25848
1.39655
-0.299363
71.6269
-322.386
0.382014
-1.53329
6.32377
-0.811815
322.204
0.307871
0.361114
-0.0619898
-1.6429
-1.53695
-1.60596
-80.193
-0.177311
-1.60779
1.7484
0.0469255
80.1828
0.325333
-7.02063
-335.931
6.85398
-1.19192
335.827
0.464792
0.443144
0.229586
34.9777
4.28453
1905.82
-1.45576
-1.37635
-0.704437
-1.15617
34.71
6.0455
1848
-1.42058
-1.17016
-1.401
-1.59715
33.9379
6.92542
1768.84
-1.14262
-1.44916
-1.60642
-1.62131
33.1825
8.40285
1724.87
-1.83998
-2.54915
-1.76348
-1.47276
31.7947
10.8094
1687.33
-2.91191
-2.90341
-1.72102
-2.03963
30.0408
15.1305
1627.23
-3.41929
-3.59889
-2.74347
-3.39753
6.9183
23.8652
1548.92
7.77315
6.84481
7.18584
-5.20668
-5.97305
-5.06844
-5.71848
-366.288
-7.97683
8.23776
366.085
1.91914
1.66593
1.64427
1.63053
-49.575
-1.21201
49.4087
1.49156
-0.113325
2.40254
-5.67755
-341.326
5.93091
-2.38176
341.051
1.18892
-355.29
-6.41967
6.79288
-1.20314
354.931
1.11358
-7.02147
-361.42
7.15397
-0.850344
361.024
7.7241
-2.47557
1488.57
0.57205
0.685816
0.763405
0.800488
-7.31454
-7.60541
-7.36226
-7.60686
7.84964
7.72123
7.79623
0.403215
-369.874
7.78954
-0.331846
369.737
-1.9986
1474.22
0.978655
1.0457
0.939297
0.226398
-7.75223
-7.76737
-7.79964
-8.17981
35.4321
3.87729
1941.75
35.496
5.97123
1916.27
35.0382
7.37526
1858.59
34.3087
8.95566
1806.45
33.3283
11.5229
1759.29
32.3721
16.0285
1705.45
8.35874
24.2088
1639.61
8.76193
7.64487
7.86392
-9.28935
-398.27
8.15916
8.60811
399.15
-91.2419
-2.28602
-2.19935
2.35834
2.31283
91.0561
-68.8279
-2.14319
1.7124
0.56788
68.7972
-0.10633
0.084628
-0.447747
-78.0973
78.0948
1.89169
-0.527049
0.123225
-0.0951862
0.301543
-0.450269
-0.376363
-0.502034
29.909
-12.7404
1472.88
-7.5331
-7.74708
-7.6147
-8.16485
3.81924
2.84169
4.01324
4.19893
30.765
-8.53748
1521.75
1.67947
1.24551
3.36644
2.83875
31.7574
-6.16901
1558.28
0.678265
0.491014
2.27707
2.16738
32.3628
-4.55618
1562.44
0.0853402
-0.838011
1.99324
2.66684
32.9569
-2.98628
1559.6
33.3473
-2.30432
1566.09
0.734433
-0.2164
0.0793817
1.42462
-1.62926
1546.13
35.8162
3.52458
1970.11
35.9975
5.67214
1962.81
35.8268
7.36836
1921.87
35.349
9.16444
1875.6
34.7465
11.7688
1825.48
34.4324
15.9959
1769.26
35.7621
22.7073
1712.84
9.75104
28.2563
1710.21
-10.0557
-8.37216
-5.40533
-7.70066
9.43208
9.91338
10.2808
-7.54321
-412.427
10.3032
7.21372
412.204
-3.21951
-381.012
-10.3013
9.94778
3.71622
380.869
0.0160212
-365.473
9.83129
1.04039
365.533
0.00805632
-0.611887
-0.514044
-9.82996
0.194549
-9.78019
-375.016
9.40499
-1.27236
375.088
0.274355
0.500813
0.606473
33.5191
-10.2242
1588
3.27574
4.75769
3.15146
3.70149
-9.23868
-9.80013
-9.14083
-9.25076
32.2222
-7.94522
1566.68
33.5017
-7.81853
1579.45
34.0342
-6.60657
1615.37
34.2165
-5.08164
1614.12
34.5235
-3.5317
1612.03
34.7507
-2.6162
1615.9
-1.61974
1598.58
36.1536
3.15404
1994.25
36.3815
5.17587
1995.11
36.4283
7.02574
1968.09
36.2461
8.98804
1931.63
36.0036
11.5901
1883.5
36.1466
15.4564
1822.01
37.5812
20.9124
1771.4
40.4657
25.0012
1758.07
42.6473
21.751
1721.38
-6.99259
-5.78265
-6.30688
-5.027
42.8651
13.7937
1647.81
-4.11051
-2.80231
-3.60176
-3.13043
42.1748
4.14447
1637.87
-0.951193
-0.290899
-1.39105
-0.286793
40.4291
-0.566961
1631.33
0.885169
1.06594
0.599165
1.0759
34.8886
-7.36001
1671.86
34.0119
-5.58031
1647.67
35.7826
-6.99605
1637.76
35.9714
-6.79129
1662.63
35.8958
-5.42574
1658.25
35.9524
-3.93843
1654.28
35.9759
-2.9116
1656.19
-1.75548
1640.11
36.4974
2.78092
2015.54
36.7254
4.65582
2018.35
36.913
6.49606
2003
36.9951
8.50028
1975.24
37.0992
11.0369
1932.13
37.5724
14.6814
1865.58
39.1274
18.8817
1831.28
41.5671
22.0887
1809.69
43.5849
19.543
1780.71
44.1957
13.2188
1725.65
43.5767
4.99662
1719.58
42.0919
0.849212
1700.92
36.8895
-5.75292
1732.66
35.7853
-4.23078
1705.29
37.7441
-6.29237
1684.15
37.5795
-6.72671
1703.58
37.3849
-5.60453
1696.05
37.2403
-4.225
1690.13
37.1443
-3.16287
1689.73
-1.92779
1674.51
36.8201
2.39213
2034.56
37.0439
4.08204
2037.01
37.3208
5.81408
2029.19
37.6102
7.79415
2009.43
37.9874
10.2288
1972.88
38.778
13.51
1910.08
40.2686
16.7629
1890.98
42.5069
19.4581
1856.43
44.3636
17.4759
1830.93
45.1051
12.3702
1784.57
44.6865
5.46322
1778.03
43.5491
1.70423
1755.61
38.9544
-5.04016
1780.18
37.4371
-3.72541
1753.08
39.3422
-5.71932
1725.23
39.0259
-6.4918
1739.43
38.6575
-5.60241
1729.28
38.3645
-4.38427
1721.72
38.2123
-3.35875
1719.01
-2.11344
1703.98
37.1094
1.99735
2051.45
37.3231
3.51467
2053.44
37.6678
5.0828
2048.93
38.1122
6.92468
2037.19
38.6919
9.19493
2007.02
39.6874
12.1217
1952.68
41.1572
14.7735
1940.88
43.2737
16.9996
1901.21
44.9843
15.479
1876.38
45.7816
11.3305
1833.92
45.516
5.53675
1826.16
44.7933
2.17007
1801.61
39.7167
-3.16753
1772.34
39.058
-5.82544
1761.77
40.7436
-5.25231
1762.34
40.3389
-6.11706
1771.29
39.7866
-5.43499
1758.81
39.4283
-4.37609
1749.3
39.18
-3.44311
1744.56
-2.25135
1729.72
37.3829
1.67342
2066.63
37.5883
2.98962
2068.42
37.9633
4.36069
2064.78
38.5121
5.99814
2059.37
39.2611
8.07553
2035.79
40.4122
10.6285
1991.03
41.8765
12.8653
1982.34
43.8656
14.6835
1946.58
45.4628
13.5851
1917.97
46.3115
10.2048
1877.5
46.2337
5.38806
1867.83
46.703
0.903225
1865.57
43.8602
-2.02999
1861.82
40.5501
-5.11739
1844.13
42.0041
-4.69537
1795.17
41.4867
-5.6395
1799.82
40.8467
-5.13318
1785.27
40.449
-4.23462
1773.83
40.1151
-3.37881
1767.2
-2.27873
1752.47
37.6358
1.33278
2080.54
37.8506
2.51733
2082.14
38.2257
3.7224
2078.7
38.8304
5.10142
2076.94
39.6904
6.90667
2060.68
40.9435
9.07417
2024.91
42.4073
11.0238
2017.58
44.2192
12.4449
1989.71
45.8179
11.7333
1954.04
46.7253
9.05487
1917.12
46.8125
5.04046
1905.66
47.052
0.658141
1898.22
44.9892
-0.34134
1885.91
41.8828
-4.35176
1873.52
43.0302
-4.07896
1825.35
42.4889
-5.06905
1825.01
41.7866
-4.71792
1809.01
41.3114
-3.97871
1795.76
40.9001
-3.24525
1787.32
-2.2558
1772.6
37.8704
1.08046
2093.29
38.096
2.0922
2094.75
38.4679
3.12257
2091.65
39.083
4.22996
2091.14
39.9965
5.72614
2080.85
41.2563
7.53639
2052.61
42.7452
9.22656
2044.72
44.4236
10.4235
2025.35
46.0475
9.97325
1986.26
47.0297
7.81866
1954.23
47.2639
4.56721
1941.14
46.7971
0.866883
1914.78
45.8653
-0.0635889
1899.11
43.0087
-3.53805
1900.76
43.6349
-3.25537
1853.83
43.3582
-4.32568
1845.6
42.6131
-4.22026
1829.94
42.0138
-3.60621
1815.26
41.5406
-2.98003
1804.95
-2.12641
1790.31
38.0912
0.846452
2105.26
38.3208
1.66225
2106.51
38.7004
2.52024
2103.85
39.2982
3.43073
2103.08
40.2118
4.62193
2095
41.4811
6.07423
2077.22
42.9797
7.52912
2068.93
44.6109
8.53731
2055.21
46.1944
8.25647
2018.74
47.2367
6.57318
1990.36
47.6733
3.97043
1974.93
47.2939
0.915858
1947.35
46.4906
0.125289
1929.82
43.8809
-2.66409
1925.98
43.7395
-2.0073
1878.88
43.9726
-3.36559
1860.37
43.3279
-3.59054
1847.84
42.6816
-3.12947
1832.22
42.1573
-2.62196
1820.31
-1.89672
1805.69
38.2997
0.647392
2116.47
38.5319
1.30061
2117.49
38.9207
1.96419
2115.28
39.4985
2.67413
2113.62
40.3554
3.62932
2104.45
41.6256
4.60909
2099.77
43.1304
5.84643
2091.54
44.7461
6.74566
2080.21
46.2477
6.58465
2048.98
47.3524
5.28605
2023.83
47.9173
3.26785
2006.54
47.6796
0.867412
1977.84
47.066
0.213178
1957.63
44.8024
-2.00199
1948.82
44.2388
-1.271
1907.09
44.4726
-2.52629
1880.08
43.9312
-2.93558
1863.67
43.2487
-2.58845
1846.78
42.6843
-2.19587
1833.28
-1.61791
1818.79
38.4965
0.448021
2127.07
38.7231
0.937431
2127.86
39.1256
1.45456
2126.07
39.6997
1.99321
2124.19
40.5502
2.66141
2116.63
41.7305
3.26418
2121.19
43.2037
4.22521
2112.61
44.7934
4.99959
2101.34
46.267
4.95758
2075.34
47.413
4.00479
2053.06
48.0746
2.50928
2034.3
47.9653
0.736321
2004.43
47.5946
0.252975
1981.3
45.6691
-1.43004
1966.77
44.9704
-0.894126
1927.32
45.0468
-1.88042
1896.75
44.4223
-2.24674
1877.39
43.7114
-2.00513
1858.91
43.1172
-1.71078
1843.74
-1.26453
1829.6
38.6776
0.28217
2137.12
38.9051
0.627277
2137.66
39.3168
0.977354
2136.35
39.8928
1.32618
2135.01
40.7237
1.72633
2130.43
41.7758
2.07682
2135.95
43.1884
2.70369
2129.47
44.775
3.30532
2119.44
46.2714
3.33844
2097.41
47.4551
2.69974
2076.61
48.1782
1.69737
2055.82
48.2347
0.523646
2024.99
48.0171
0.202647
1999.91
46.4123
-0.944539
1979.91
45.6126
-0.592189
1941.56
45.4943
-1.2564
1910.27
44.7954
-1.51696
1888.37
44.067
-1.34245
1868.2
43.4491
-1.15629
1851.69
-0.873636
1837.97
38.848
0.153717
2146.68
39.0833
0.31737
2146.89
39.4893
0.484459
2145.96
40.065
0.641352
2145.02
40.8416
0.83355
2142.15
41.8123
1.01239
2144.94
43.1152
1.28934
2142.11
44.6859
1.62487
2134.55
46.2414
1.69397
2115.67
47.4761
1.38062
2094.34
48.2467
0.871662
2070.54
48.4309
0.26886
2039.06
48.2678
0.108548
2012.91
47.042
-0.4571
1988.26
46.1916
-0.286912
1951.12
45.7513
-0.61326
1920.29
45.0487
-0.76736
1896.13
44.3102
-0.685899
1874.62
43.6762
-0.586311
1856.96
-0.432373
1843.79
39
2155.15
39.2249