/*--------------------------------*- C++ -*----------------------------------*\
  =========                 |
  \\      /  F ield         | OpenFOAM: The Open Source CFD Toolbox
   \\    /   O peration     | Website:  https://openfoam.org
    \\  /    A nd           | Version:  10
     \\/     M anipulation  |
\*---------------------------------------------------------------------------*/
FoamFile
{
    format      ascii;
    class       volVectorField;
    location    "2000";
    object      U;
}
// * * * * * * * * * * * * * * * * * * * * * * * * * * * * * * * * * * * * * //

dimensions      [0 1 -1 0 0 0 0];

internalField   nonuniform List<vector> 
52338
(
(0.371625 0.0146749 20.1362)
(0.336669 -0.00419866 16.914)
(0.312744 -0.0210072 16.0912)
(0.294718 0.0121406 15.2938)
(0.285615 0.0336812 14.5318)
(0.243083 0.0215748 13.7194)
(0.379993 0.0127013 21.3857)
(0.38545 0.0141736 20.0806)
(0.365939 0.0129192 19.0417)
(0.355791 0.0162176 18.4147)
(0.344019 0.0219054 17.927)
(0.330009 0.0381025 17.4766)
(0.292025 0.0638145 16.5157)
(0.204162 0.0485903 13.6841)
(0.154096 -0.0182495 12.3371)
(0.22145 -0.0187555 13.375)
(0.260263 -0.0319008 14.3449)
(0.281044 -0.00999057 15.1883)
(0.29694 0.00218124 14.9712)
(0.307256 -0.0209012 15.6581)
(0.388901 0.0113549 22.0629)
(0.394733 0.0188385 21.4389)
(0.388231 0.0190575 20.5966)
(0.378557 0.021579 19.9194)
(0.366937 0.0308688 19.4068)
(0.35167 0.0538297 18.9069)
(0.325115 0.102527 18.2182)
(0.29751 0.124831 16.5464)
(0.149575 -0.0454857 11.4362)
(0.248977 -0.0456217 15.8281)
(0.294297 -0.0330575 16.4049)
(0.313853 -0.031535 16.7238)
(0.33797 -0.0201541 17.1882)
(0.345628 -0.0135927 16.9576)
(0.353342 -0.0167872 17.2927)
(0.394201 0.0095378 22.4975)
(0.399893 0.0187449 22.1772)
(0.398568 0.0228671 21.5528)
(0.391524 0.02697 20.8748)
(0.382618 0.0369507 20.2992)
(0.372002 0.0580967 19.7752)
(0.360337 0.0984193 19.1979)
(0.355371 0.128187 18.1874)
(0.389576 0.158509 16.3605)
(0.317419 0.0674161 13.2269)
(0.286077 -0.0461089 14.5045)
(0.301318 -0.100623 16.6982)
(0.332674 -0.0549622 17.6511)
(0.345357 -0.0426087 17.8513)
(0.353767 -0.0342662 17.9716)
(0.361755 -0.0251013 18.01)
(0.372101 -0.0207028 18.0402)
(0.373345 -0.0167159 18.0307)
(0.399292 0.00740573 22.8248)
(0.403791 0.0170382 22.6986)
(0.405194 0.023321 22.261)
(0.401771 0.0291214 21.6758)
(0.395887 0.0395212 21.0768)
(0.389712 0.0588468 20.5199)
(0.388566 0.0923984 19.9713)
(0.40796 0.126934 19.3582)
(0.448657 0.123078 18.4196)
(0.450942 0.0687443 17.4946)
(0.451841 0.0134424 16.778)
(0.421563 -0.0400936 17.0447)
(0.409215 -0.0630236 17.6115)
(0.37675 -0.0641202 18.3149)
(0.370397 -0.0557731 18.5107)
(0.373982 -0.045068 18.589)
(0.377571 -0.0366695 18.6296)
(0.381907 -0.0279138 18.6284)
(0.38759 -0.0224945 18.617)
(0.389279 -0.0172052 18.5927)
(0.403741 0.00587752 23.1026)
(0.407279 0.0148976 23.0672)
(0.410068 0.0224702 22.7891)
(0.409872 0.0298062 22.3299)
(0.407361 0.0405132 21.7699)
(0.405278 0.0578611 21.1992)
(0.409533 0.0860234 20.6551)
(0.432353 0.110724 20.1334)
(0.472445 0.0963784 19.5989)
(0.483751 0.05928 19.0976)
(0.487628 0.00997541 18.8512)
(0.462105 -0.0269645 18.7915)
(0.438288 -0.0498813 18.9161)
(0.413163 -0.0574054 19.1098)
(0.401491 -0.0524444 19.1844)
(0.398897 -0.0450881 19.1878)
(0.398305 -0.0374728 19.1712)
(0.39964 -0.0291955 19.1335)
(0.402159 -0.0235012 19.091)
(0.402896 -0.0175719 19.052)
(0.408075 0.00491819 23.3503)
(0.410711 0.013152 23.3391)
(0.414124 0.020967 23.1955)
(0.41618 0.0292365 22.8464)
(0.417044 0.0401177 22.3717)
(0.418691 0.055588 21.8268)
(0.426556 0.0788151 21.2863)
(0.450102 0.0978377 20.7892)
(0.481824 0.0870741 20.3415)
(0.496936 0.057244 19.9485)
(0.499891 0.0149181 19.7195)
(0.481043 -0.0237082 19.6256)
(0.462359 -0.0421054 19.654)
(0.43926 -0.0503135 19.7157)
(0.426013 -0.0483103 19.728)
(0.420032 -0.0433028 19.6934)
(0.416636 -0.0369021 19.6339)
(0.415447 -0.0294571 19.5638)
(0.415777 -0.0237659 19.4956)
(0.415304 -0.017607 19.4432)
(0.411885 0.00414343 23.5738)
(0.414012 0.0116652 23.5624)
(0.41771 0.0192663 23.5053)
(0.421295 0.0278348 23.2565)
(0.424996 0.0385834 22.8772)
(0.429838 0.0525875 22.3929)
(0.44026 0.0715409 21.8738)
(0.463509 0.0864709 21.3846)
(0.490511 0.0779401 20.9673)
(0.505867 0.053105 20.6243)
(0.509449 0.0172053 20.3987)
(0.495176 -0.0163652 20.2647)
(0.479509 -0.035182 20.2369)
(0.460285 -0.0444652 20.2252)
(0.445766 -0.0442537 20.1949)
(0.438267 -0.0406732 20.1308)
(0.432922 -0.0354165 20.0379)
(0.429696 -0.0288263 19.9394)
(0.42839 -0.0234398 19.8491)
(0.426687 -0.0173357 19.7844)
(0.415281 0.00364701 23.775)
(0.417148 0.0103737 23.7623)
(0.420781 0.0174561 23.7426)
(0.425648 0.0257452 23.5914)
(0.431319 0.0361077 23.29)
(0.438869 0.0487329 22.8872)
(0.450982 0.0643952 22.4129)
(0.473502 0.0761724 21.9362)
(0.497739 0.0691734 21.5287)
(0.512695 0.0485398 21.2034)
(0.517223 0.0183588 20.9723)
(0.506618 -0.0107371 20.8093)
(0.492966 -0.0285778 20.7354)
(0.477097 -0.0389019 20.6803)
(0.462882 -0.0398515 20.6124)
(0.454114 -0.0374481 20.5166)
(0.447392 -0.0332407 20.3953)
(0.442552 -0.0275246 20.2719)
(0.43997 -0.0226067 20.1618)
(0.437029 -0.0167574 20.0857)
(0.418397 0.00318613 23.9575)
(0.420204 0.00924631 23.9463)
(0.4236 0.0155681 23.935)
(0.429154 0.0231734 23.8608)
(0.436353 0.0328728 23.6316)
(0.445921 0.0441728 23.3054)
(0.459202 0.0571754 22.8967)
(0.480829 0.0666606 22.4511)
(0.503374 0.0611144 22.0485)
(0.518048 0.0440711 21.725)
(0.523566 0.0187374 21.4831)
(0.516062 -0.00669195 21.295)
(0.504051 -0.0231089 21.1795)
(0.490791 -0.03309 21.0893)
(0.47739 -0.0351676 20.9865)
(0.467867 -0.033823 20.861)
(0.460205 -0.0305576 20.7141)
(0.454107 -0.0256869 20.568)
(0.450509 -0.0213229 20.4399)
(0.446358 -0.0158766 20.353)
(0.421253 0.00279088 24.1245)
(0.423045 0.00818664 24.1159)
(0.426396 0.0137246 24.1046)
(0.431978 0.0203348 24.0749)
(0.440337 0.0290282 23.9222)
(0.451219 0.0391661 23.6568)
(0.465414 0.0499093 23.3224)
(0.48605 0.0577089 22.9256)
(0.507459 0.0534956 22.5356)
(0.522122 0.039642 22.2094)
(0.528594 0.0184679 21.9537)
(0.523984 -0.00381139 21.75)
(0.513841 -0.0185921 21.5949)
(0.502178 -0.0276925 21.4641)
(0.489679 -0.0305073 21.3263)
(0.479781 -0.0299807 21.1705)
(0.471499 -0.027515 20.9988)
(0.464423 -0.0234257 20.8317)
(0.46002 -0.0196403 20.6869)
(0.454728 -0.0147101 20.5898)
(0.423915 0.00239916 24.2787)
(0.425686 0.00713391 24.2722)
(0.429138 0.0119347 24.2615)
(0.43451 0.0174289 24.2486)
(0.443208 0.0248643 24.1642)
(0.455144 0.0337925 23.9583)
(0.470058 0.0427913 23.689)
(0.489677 0.0490942 23.3527)
(0.510069 0.0461284 22.9922)
(0.524978 0.0350933 22.6665)
(0.532466 0.0175928 22.3968)
(0.53025 -0.00120378 22.1791)
(0.522243 -0.0144345 21.9865)
(0.511818 -0.0228273 21.8122)
(0.500131 -0.0259908 21.636)
(0.490069 -0.0260194 21.4482)
(0.481372 -0.0242108 21.252)
(0.473533 -0.0208326 21.0649)
(0.468511 -0.0176198 20.9045)
(0.462227 -0.0132781 20.798)
(0.426397 0.00202671 24.422)
(0.42815 0.00606056 24.4168)
(0.431736 0.0101503 24.4083)
(0.437029 0.0145528 24.3986)
(0.44535 0.0204563 24.3614)
(0.45793 0.0279858 24.2189)
(0.473276 0.0356739 23.9992)
(0.49207 0.0409766 23.7265)
(0.51147 0.0389314 23.412)
(0.526673 0.0302999 23.0984)
(0.5354 0.0161666 22.8179)
(0.53519 0.000756332 22.5763)
(0.529059 -0.0107406 22.3477)
(0.519828 -0.0183978 22.1318)
(0.508947 -0.0215847 21.9138)
(0.498857 -0.0219819 21.6944)
(0.489873 -0.0207125 21.4743)
(0.481443 -0.017983 21.2684)
(0.475949 -0.0153297 21.0934)
(0.468846 -0.0116188 20.9781)
(0.428721 0.00165606 24.5558)
(0.430475 0.00496683 24.5517)
(0.434124 0.00833495 24.5456)
(0.43952 0.0118211 24.537)
(0.447234 0.0161953 24.5227)
(0.459494 0.0221748 24.4405)
(0.47522 0.0287071 24.2664)
(0.493582 0.0332384 24.0457)
(0.512124 0.0319057 23.7839)
(0.527403 0.0251956 23.4983)
(0.537469 0.0140696 23.2129)
(0.538884 0.00184957 22.9442)
(0.534453 -0.00778316 22.676)
(0.526357 -0.0143663 22.4147)
(0.516238 -0.0173962 22.1555)
(0.506129 -0.0179261 21.9059)
(0.497016 -0.0170734 21.6648)
(0.488135 -0.0149347 21.4414)
(0.482288 -0.012827 21.2533)
(0.47451 -0.00977407 21.13)
(0.430902 0.00128746 24.6813)
(0.432663 0.00386667 24.6781)
(0.43633 0.00649669 24.6737)
(0.441848 0.00917359 24.6669)
(0.449239 0.0122304 24.6591)
(0.460435 0.0164542 24.6232)
(0.476046 0.0216866 24.5019)
(0.494278 0.0257654 24.3188)
(0.51237 0.0250404 24.1018)
(0.52775 0.0199059 23.848)
(0.538444 0.011415 23.5636)
(0.541553 0.00215206 23.2656)
(0.538546 -0.00544591 22.956)
(0.531472 -0.0107244 22.6521)
(0.522059 -0.01342 22.3588)
(0.511985 -0.0139414 22.083)
(0.502783 -0.0133513 21.8218)
(0.493575 -0.0117387 21.583)
(0.487476 -0.0101579 21.3835)
(0.479152 -0.00777766 21.2533)
(0.432961 0.000921891 24.7994)
(0.434736 0.00276342 24.7971)
(0.438413 0.00463037 24.7938)
(0.443976 0.00654192 24.7889)
(0.451348 0.00857055 24.7824)
(0.461502 0.0111557 24.7705)
(0.475946 0.0148591 24.7018)
(0.494023 0.0183504 24.557)
(0.512287 0.0182222 24.3672)
(0.528001 0.0144929 24.1307)
(0.539087 0.00845351 23.8414)
(0.543368 0.00190399 23.5158)
(0.541451 -0.00359745 23.1743)
(0.535256 -0.00737348 22.8389)
(0.526408 -0.00950611 22.5198)
(0.516452 -0.00996432 22.2212)
(0.507172 -0.0095715 21.9428)
(0.497727 -0.00843786 21.6914)
(0.491463 -0.00736151 21.4827)
(0.482705 -0.00564019 21.3469)
(0.434905 0.000511805 24.9107)
(0.436674 0.00161511 24.9081)
(0.440337 0.002738 24.9043)
(0.445876 0.00389455 24.8994)
(0.453281 0.00508657 24.8929)
(0.462888 0.00640209 24.8866)
(0.475599 0.00842654 24.858)
(0.492825 0.0108496 24.7595)
(0.511651 0.0111368 24.5864)
(0.528098 0.00890368 24.3443)
(0.539522 0.0051795 24.0382)
(0.544592 0.00126914 23.6897)
(0.543271 -0.00202029 23.3258)
(0.537667 -0.00430491 22.9692)
(0.52926 -0.0056465 22.6311)
(0.519447 -0.00595339 22.3162)
(0.510141 -0.00575082 22.0253)
(0.500551 -0.00506757 21.7649)
(0.494221 -0.00447481 21.5497)
(0.485097 -0.00343976 21.41)
(0.436673 0.000151349 25.0081)
(0.43833 0.000516476 24.9973)
(0.441884 0.000900645 24.9876)
(0.447322 0.00129163 24.9786)
(0.45466 0.00168767 24.9698)
(0.464109 0.00208421 24.9613)
(0.475563 0.00270815 24.9482)
(0.491536 0.00360629 24.8964)
(0.510785 0.0037927 24.7331)
(0.52793 0.00301733 24.4714)
(0.539575 0.00178247 24.1457)
(0.545049 0.000480352 23.7821)
(0.543996 -0.000641002 23.405)
(0.538762 -0.00140936 23.0365)
(0.530623 -0.00186243 22.6882)
(0.520933 -0.00197272 22.3646)
(0.511662 -0.00191668 22.0672)
(0.502013 -0.00168485 21.8021)
(0.495719 -0.00151834 21.5835)
(0.486282 -0.00118317 21.4418)
(0.363991 0.024184 20.2294)
(0.34388 0.0114447 17.3627)
(0.322184 0.00346359 16.5099)
(0.316087 0.0149091 16.0599)
(0.286869 0.0192634 14.8642)
(0.258139 0.0244581 14.6008)
(0.37753 0.0152129 21.4183)
(0.383748 0.0170368 20.21)
(0.368932 0.0114775 19.1716)
(0.357226 0.0112471 18.5271)
(0.34319 0.0199477 18.0263)
(0.319261 0.0340995 17.5979)
(0.282204 0.0770486 16.8769)
(0.191518 0.113436 14.1603)
(0.1556 -0.0178936 12.3344)
(0.221671 -0.0187066 13.3732)
(0.260386 -0.031748 14.3397)
(0.280877 -0.00974225 15.1843)
(0.296822 0.00237056 14.9674)
(0.307135 -0.0208432 15.6568)
(0.388667 0.0109648 22.0747)
(0.394713 0.0176759 21.4658)
(0.388203 0.017893 20.6288)
(0.377993 0.0206149 19.9484)
(0.365983 0.0301453 19.4351)
(0.351323 0.0505068 18.9562)
(0.332862 0.0949478 18.3071)
(0.293781 0.157249 16.9089)
(0.16179 -0.11261 12.906)
(0.253922 -0.0459097 15.8225)
(0.294726 -0.0329691 16.4002)
(0.313913 -0.0314742 16.7189)
(0.337863 -0.0200301 17.1852)
(0.345508 -0.013578 16.955)
(0.353232 -0.0167283 17.2914)
(0.393885 0.00975658 22.5053)
(0.399533 0.018263 22.1956)
(0.398416 0.0219609 21.577)
(0.391126 0.0261879 20.8996)
(0.381512 0.0364702 20.3242)
(0.371041 0.0577592 19.81)
(0.363296 0.0962841 19.2503)
(0.35413 0.147666 18.3665)
(0.412326 0.17576 16.613)
(0.358256 0.0638613 14.0588)
(0.306529 -0.0297981 14.4422)
(0.334668 -0.0750934 17.2874)
(0.333006 -0.0549978 17.6452)
(0.345954 -0.0425319 17.8483)
(0.353858 -0.0342113 17.969)
(0.361683 -0.0251244 18.0081)
(0.372016 -0.0206616 18.0388)
(0.373223 -0.0167148 18.0298)
(0.398949 0.00796952 22.8298)
(0.403277 0.0173876 22.71)
(0.404927 0.0233959 22.2774)
(0.401385 0.0291899 21.6947)
(0.394962 0.0397748 21.0966)
(0.388966 0.0600862 20.5482)
(0.389072 0.0937082 20.0083)
(0.410648 0.126529 19.3928)
(0.452026 0.125393 18.5107)
(0.453083 0.0627578 17.6287)
(0.458305 0.0198067 17.1422)
(0.41918 -0.0261563 17.1416)
(0.416207 -0.0560703 17.9724)
(0.383841 -0.068066 18.3657)
(0.371852 -0.0559487 18.5062)
(0.374584 -0.0451667 18.5872)
(0.377684 -0.0367889 18.6283)
(0.381878 -0.0279999 18.6274)
(0.387535 -0.0225354 18.6163)
(0.389186 -0.0172267 18.5921)
(0.403427 0.00675312 23.1062)
(0.406735 0.0159169 23.0743)
(0.409718 0.023396 22.7998)
(0.409474 0.0307081 22.3434)
(0.406632 0.0415609 21.7853)
(0.404723 0.0599016 21.2228)
(0.409841 0.0881649 20.6831)
(0.434098 0.112549 20.1589)
(0.474807 0.0963641 19.6253)
(0.48413 0.0581657 19.1304)
(0.48301 0.00966766 18.8901)
(0.461546 -0.0238128 18.8445)
(0.443702 -0.0465862 18.9639)
(0.418624 -0.0594412 19.1342)
(0.40344 -0.0535236 19.1797)
(0.399595 -0.045349 19.1865)
(0.398453 -0.0376022 19.1705)
(0.399641 -0.0292799 19.1329)
(0.402125 -0.0235466 19.0906)
(0.402826 -0.0175928 19.0516)
(0.407815 0.00586598 23.353)
(0.410219 0.0143585 23.3439)
(0.413748 0.0222886 23.2025)
(0.415792 0.0305401 22.8557)
(0.416484 0.0415976 22.3833)
(0.418248 0.0579501 21.8452)
(0.426667 0.0812611 21.3074)
(0.451114 0.0997904 20.808)
(0.483297 0.0869371 20.3626)
(0.497137 0.0559852 19.9728)
(0.497252 0.0150204 19.7475)
(0.480371 -0.0166458 19.6481)
(0.464974 -0.0386437 19.681)
(0.443589 -0.051084 19.7399)
(0.428782 -0.0497607 19.7335)
(0.421047 -0.0436198 19.6924)
(0.416833 -0.0370121 19.6334)
(0.415471 -0.0295295 19.5634)
(0.415758 -0.0238074 19.4953)
(0.415254 -0.0176263 19.443)
(0.411681 0.00500713 23.5759)
(0.413618 0.012794 23.5658)
(0.417352 0.0206334 23.51)
(0.420919 0.0292358 23.263)
(0.424561 0.0401643 22.8858)
(0.429484 0.0547476 22.4064)
(0.440145 0.0738377 21.8889)
(0.463963 0.0881608 21.3977)
(0.491314 0.0783263 20.9835)
(0.50599 0.0528192 20.6423)
(0.508198 0.017971 20.4192)
(0.494914 -0.0116929 20.282)
(0.480734 -0.0315237 20.2572)
(0.463209 -0.0433402 20.2507)
(0.448858 -0.044688 20.2063)
(0.439514 -0.0408423 20.1302)
(0.433162 -0.0355022 20.0375)
(0.429735 -0.0288851 19.9391)
(0.428383 -0.0234759 19.8489)
(0.426651 -0.0173532 19.7842)
(0.415127 0.00437987 23.7767)
(0.41685 0.0113321 23.765)
(0.420474 0.0186649 23.7458)
(0.425302 0.0270577 23.5959)
(0.430962 0.0375572 23.2961)
(0.438547 0.0506211 22.8974)
(0.450768 0.066299 22.425)
(0.473643 0.0777135 21.9469)
(0.498138 0.0700257 21.5414)
(0.512787 0.0490584 21.217)
(0.516583 0.0195315 20.9879)
(0.506639 -0.00803246 20.8233)
(0.493776 -0.0256771 20.7466)
(0.478848 -0.036644 20.6959)
(0.465389 -0.0392477 20.6217)
(0.45531 -0.037437 20.5161)
(0.447646 -0.033288 20.395)
(0.4426 -0.0275671 20.2717)
(0.439973 -0.0226354 20.1617)
(0.437005 -0.016772 20.0855)
(0.418282 0.0037861 23.9588)
(0.419986 0.010023 23.9484)
(0.423364 0.0165542 23.9374)
(0.42885 0.0243234 23.8639)
(0.436036 0.0341408 23.636)
(0.445612 0.0457938 23.3129)
(0.458955 0.0587805 22.9061)
(0.480812 0.0680288 22.4596)
(0.503563 0.0621862 22.0585)
(0.518109 0.0449871 21.7356)
(0.523154 0.0200991 21.4955)
(0.516227 -0.00445923 21.3108)
(0.505023 -0.0207319 21.1886)
(0.49182 -0.030999 21.0976)
(0.479286 -0.0342324 20.9937)
(0.468893 -0.0337068 20.8606)
(0.460453 -0.0305698 20.7138)
(0.454157 -0.0257131 20.5679)
(0.450518 -0.0213438 20.4398)
(0.446344 -0.0158877 20.3529)
(0.421169 0.00327587 24.1256)
(0.422889 0.00880755 24.1176)
(0.426228 0.0145007 24.1064)
(0.431731 0.0212863 24.0771)
(0.440064 0.0301033 23.9252)
(0.450961 0.0404683 23.6614)
(0.465155 0.0513016 23.3282)
(0.485958 0.0588968 22.9322)
(0.507541 0.0545821 22.5436)
(0.522171 0.0406517 22.2178)
(0.528386 0.0198625 21.9638)
(0.524185 -0.00147521 21.7634)
(0.51474 -0.0163621 21.6036)
(0.502883 -0.0260814 21.4707)
(0.491124 -0.0295441 21.3319)
(0.480628 -0.0298148 21.1702)
(0.471726 -0.0274996 20.9987)
(0.464472 -0.023439 20.8316)
(0.460033 -0.0196551 20.6868)
(0.454721 -0.0147183 20.5898)
(0.423853 0.00278955 24.2796)
(0.425576 0.00762674 24.2735)
(0.429023 0.0125396 24.2629)
(0.434325 0.0181739 24.2501)
(0.442988 0.0257353 24.1663)
(0.454935 0.0348165 23.9607)
(0.46982 0.0438778 23.692)
(0.489523 0.0502225 23.3573)
(0.510084 0.0471358 22.9984)
(0.525026 0.0360535 22.673)
(0.532489 0.0188732 22.405)
(0.530547 0.000840286 22.1873)
(0.522766 -0.0126611 21.9905)
(0.512247 -0.021498 21.8174)
(0.501231 -0.0250759 21.64)
(0.490742 -0.0258459 21.4477)
(0.48156 -0.0241796 21.2519)
(0.47358 -0.0208366 21.0649)
(0.468524 -0.0176297 20.9044)
(0.462225 -0.0132838 20.7979)
(0.426352 0.00234065 24.4227)
(0.428074 0.00644831 24.4179)
(0.431657 0.0106319 24.4093)
(0.43689 0.0151671 24.3996)
(0.445162 0.0212043 24.3626)
(0.457739 0.0288841 24.2203)
(0.473049 0.0366177 24.001)
(0.491888 0.041934 23.7296)
(0.511439 0.0398211 23.4165)
(0.526712 0.0311564 23.1033)
(0.535503 0.0172565 22.8243)
(0.535496 0.00212918 22.5828)
(0.529432 -0.00957158 22.3508)
(0.520111 -0.0173025 22.1354)
(0.509767 -0.0208456 21.9161)
(0.499356 -0.0218722 21.6935)
(0.490026 -0.0206825 21.4741)
(0.481486 -0.0179815 21.2683)
(0.475962 -0.0153358 21.0934)
(0.468846 -0.0116226 20.978)
(0.428688 0.00190297 24.5564)
(0.430424 0.0052661 24.5525)
(0.434074 0.00871031 24.5463)
(0.439416 0.0122966 24.5375)
(0.44709 0.0167717 24.5234)
(0.459329 0.0228551 24.4414)
(0.475028 0.0294359 24.2676)
(0.49341 0.0340113 24.0477)
(0.512068 0.0326629 23.787)
(0.52743 0.0259318 23.5017)
(0.537501 0.0149651 23.2177)
(0.539148 0.00281769 22.949)
(0.53475 -0.00697954 22.6782)
(0.526562 -0.0134861 22.417)
(0.516825 -0.0167713 22.1577)
(0.50653 -0.0178803 21.9059)
(0.49715 -0.0170589 21.6647)
(0.488174 -0.0149318 21.4414)
(0.482301 -0.0128303 21.2533)
(0.474513 -0.00977658 21.13)
(0.430878 0.00147243 24.6817)
(0.432629 0.00408807 24.6787)
(0.436299 0.00676393 24.6741)
(0.441777 0.00952138 24.6672)
(0.449131 0.0126637 24.6596)
(0.460306 0.01696 24.6238)
(0.475887 0.0222419 24.5026)
(0.494124 0.0263544 24.3201)
(0.512306 0.0256411 24.1037)
(0.527767 0.0204908 23.8501)
(0.538534 0.0121191 23.5665)
(0.541767 0.0028748 23.2685)
(0.538787 -0.00485128 22.9572)
(0.531627 -0.010037 22.6532)
(0.522421 -0.0128387 22.3606)
(0.512366 -0.0138287 22.0836)
(0.502914 -0.013339 21.8217)
(0.493609 -0.0117366 21.583)
(0.48749 -0.0101597 21.3835)
(0.479155 -0.00777917 21.2532)
(0.432944 0.00105201 24.7996)
(0.434714 0.00292041 24.7974)
(0.438397 0.0048181 24.794)
(0.443932 0.0067862 24.7891)
(0.451275 0.00888285 24.7826)
(0.461403 0.0115182 24.7707)
(0.47581 0.0152636 24.7022)
(0.493895 0.0187585 24.5577)
(0.512226 0.0186419 24.3682)
(0.528008 0.0149145 24.1317)
(0.539174 0.00897343 23.8426)
(0.543542 0.00242761 23.5172)
(0.541652 -0.00317885 23.1748)
(0.535359 -0.00691856 22.8392)
(0.526635 -0.00900709 22.5204)
(0.516712 -0.00979047 22.2214)
(0.50728 -0.00955477 21.9427)
(0.497755 -0.00843605 21.6914)
(0.491475 -0.00736224 21.4827)
(0.482709 -0.00564139 21.3469)
(0.434893 0.000599602 24.9108)
(0.436659 0.00172036 24.9083)
(0.44033 0.00286274 24.9045)
(0.445849 0.00404746 24.8994)
(0.453229 0.00527734 24.893)
(0.462812 0.00662339 24.8866)
(0.47549 0.00867245 24.8581)
(0.492713 0.0111154 24.7598)
(0.511592 0.0114222 24.5868)
(0.528108 0.00914337 24.3446)
(0.539596 0.0055061 24.0386)
(0.544723 0.00159407 23.6901)
(0.543413 -0.00178831 23.3259)
(0.53778 -0.00402677 22.9691)
(0.529415 -0.00532924 22.631)
(0.519617 -0.00583072 22.3161)
(0.510223 -0.00573892 22.0252)
(0.500576 -0.00506555 21.7649)
(0.494232 -0.00447523 21.5497)
(0.485101 -0.00344042 21.41)
(0.436666 0.000173984 25.0081)
(0.438319 0.000544609 24.9974)
(0.441875 0.000931338 24.9877)
(0.447302 0.00133155 24.9786)
(0.45462 0.00174644 24.9698)
(0.464048 0.00215423 24.9613)
(0.475488 0.00277423 24.9483)
(0.491467 0.00366031 24.8965)
(0.510747 0.00384471 24.7332)
(0.527938 0.00307467 24.4715)
(0.539624 0.00185085 24.1458)
(0.545159 0.000554167 23.7822)
(0.544108 -0.00057255 23.4051)
(0.538859 -0.00132738 23.0363)
(0.530747 -0.00176823 22.688)
(0.521063 -0.00193715 22.3645)
(0.511723 -0.00191394 22.0672)
(0.502035 -0.00168394 21.8021)
(0.49573 -0.00151848 21.5835)
(0.486286 -0.00118339 21.4418)
(0.364916 0.0255527 20.2373)
(0.344658 0.0130547 17.392)
(0.322561 0.00465269 16.5387)
(0.315999 0.0156806 16.0965)
(0.288637 0.0195604 14.9321)
(0.263314 0.023068 14.6682)
(0.378028 0.0151258 21.42)
(0.384162 0.0180867 20.2086)
(0.368787 0.012863 19.1715)
(0.356887 0.014461 18.5285)
(0.343314 0.021581 18.0264)
(0.323347 0.0346421 17.6015)
(0.287537 0.0756605 16.89)
(0.200441 0.122666 14.2602)
(0.156842 -0.0184677 12.3367)
(0.222288 -0.0188526 13.3732)
(0.260517 -0.0318468 14.3382)
(0.280842 -0.00981334 15.1828)
(0.296743 0.00233895 14.9656)
(0.307094 -0.0208653 15.6558)
(0.389116 0.0114654 22.0766)
(0.395358 0.0189172 21.4668)
(0.388304 0.0192344 20.629)
(0.378021 0.0219994 19.9482)
(0.366327 0.0313417 19.4351)
(0.351525 0.0510446 18.9586)
(0.333573 0.0936588 18.3139)
(0.296548 0.142484 16.915)
(0.166964 -0.0975169 12.8665)
(0.252754 -0.046554 15.8222)
(0.295081 -0.0331188 16.3975)
(0.31393 -0.0314587 16.7155)
(0.33779 -0.0201026 17.1831)
(0.345429 -0.013526 16.9526)
(0.353179 -0.0167327 17.2903)
(0.394336 0.0091983 22.5075)
(0.400258 0.0175724 22.1972)
(0.398619 0.0215728 21.5778)
(0.391168 0.0260338 20.9002)
(0.381733 0.03619 20.3251)
(0.371249 0.056736 19.8128)
(0.364014 0.0957866 19.2533)
(0.357222 0.138063 18.3728)
(0.408861 0.174277 16.6197)
(0.360909 0.0585528 14.1116)
(0.29993 -0.0442057 14.5213)
(0.332581 -0.074808 17.2996)
(0.331668 -0.0554652 17.6433)
(0.346062 -0.0426468 17.8465)
(0.353817 -0.0342641 17.9672)
(0.361638 -0.0251091 18.0065)
(0.371989 -0.0206675 18.0374)
(0.373182 -0.0167038 18.0288)
(0.399319 0.00719802 22.8322)
(0.403917 0.0162151 22.7124)
(0.405262 0.0221723 22.2792)
(0.401526 0.0282222 21.696)
(0.395217 0.0387694 21.0982)
(0.389241 0.0586033 20.5518)
(0.389483 0.0927646 20.0124)
(0.409985 0.125895 19.3953)
(0.453548 0.124932 18.5117)
(0.453728 0.0653008 17.6322)
(0.459259 0.0184368 17.1661)
(0.421898 -0.0377474 17.2107)
(0.412794 -0.0583527 17.996)
(0.381694 -0.0689383 18.3664)
(0.371132 -0.0558281 18.5055)
(0.374655 -0.0452026 18.586)
(0.377668 -0.0368015 18.627)
(0.381857 -0.0279741 18.6262)
(0.387515 -0.0225224 18.6154)
(0.389151 -0.0172117 18.5914)
(0.403691 0.00613992 23.1085)
(0.407234 0.0148477 23.077)
(0.41006 0.0221252 22.8022)
(0.409659 0.0295609 22.3454)
(0.406812 0.04045 21.7875)
(0.404962 0.0585378 21.2263)
(0.410216 0.0868354 20.6873)
(0.434146 0.11103 20.1618)
(0.474816 0.0969131 19.6258)
(0.484512 0.0589162 19.1304)
(0.484259 0.00968199 18.8945)
(0.460581 -0.0278643 18.8606)
(0.44159 -0.0508933 18.9734)
(0.417099 -0.0597949 19.1358)
(0.402776 -0.0531586 19.1796)
(0.399604 -0.0453228 19.1859)
(0.398464 -0.037604 19.1697)
(0.399635 -0.0292656 19.1322)
(0.402108 -0.0235307 19.0899)
(0.402792 -0.0175828 19.0511)
(0.407983 0.00541178 23.355)
(0.410575 0.0135348 23.3464)
(0.414052 0.0212131 23.2051)
(0.415992 0.0294574 22.8581)
(0.416639 0.0405293 22.3858)
(0.41844 0.0567926 21.8483)
(0.42699 0.0800071 21.3107)
(0.451429 0.0984102 20.811)
(0.4835 0.0862977 20.3638)
(0.497396 0.0554582 19.9735)
(0.497614 0.0133488 19.7505)
(0.479621 -0.0206329 19.6578)
(0.463799 -0.040945 19.6893)
(0.442325 -0.0514901 19.7435)
(0.428235 -0.0493494 19.7339)
(0.420909 -0.0435457 19.6923)
(0.416848 -0.0370262 19.6329)
(0.415476 -0.0295313 19.5629)
(0.415747 -0.0238032 19.4948)
(0.415223 -0.0176229 19.4426)
(0.411784 0.00470614 23.5776)
(0.413857 0.0122502 23.5679)
(0.41759 0.0198365 23.5123)
(0.421104 0.0283448 23.2653)
(0.424707 0.0392361 22.8882)
(0.42966 0.0537874 22.4091)
(0.440439 0.0728193 21.8918)
(0.464312 0.0870971 21.4005)
(0.491583 0.0773374 20.9853)
(0.506198 0.0517103 20.6438)
(0.508037 0.0162145 20.4224)
(0.494299 -0.0142408 20.2891)
(0.480217 -0.0330694 20.2646)
(0.462498 -0.0439483 20.2554)
(0.448353 -0.0444843 20.2076)
(0.439276 -0.0407786 20.1302)
(0.433166 -0.0355135 20.0372)
(0.429749 -0.0288934 19.9388)
(0.428376 -0.0234797 19.8485)
(0.426625 -0.0173545 19.7839)
(0.415187 0.00420629 23.778)
(0.416996 0.0110102 23.7666)
(0.420637 0.018133 23.7478)
(0.425454 0.026389 23.598)
(0.431091 0.0368123 23.2983)
(0.438713 0.0498293 22.8998)
(0.45105 0.0654686 22.4275)
(0.473977 0.0768496 21.9494)
(0.498388 0.0690608 21.5435)
(0.512891 0.0479605 21.2189)
(0.516258 0.0181021 20.9911)
(0.506114 -0.00935773 20.8289)
(0.493581 -0.0267359 20.7524)
(0.478418 -0.0374048 20.7)
(0.465012 -0.0393868 20.6232)
(0.455077 -0.0374214 20.5162)
(0.447633 -0.0332895 20.3949)
(0.442617 -0.0275756 20.2715)
(0.43997 -0.0226419 20.1615)
(0.436984 -0.0167758 20.0853)
(0.418317 0.00369664 23.9599)
(0.420067 0.00984662 23.9497)
(0.423462 0.0162335 23.9389)
(0.428957 0.0238652 23.8656)
(0.436135 0.0335801 23.6379)
(0.445762 0.0451648 23.315)
(0.459226 0.0580846 22.9083)
(0.481118 0.0672788 22.4618)
(0.50377 0.061322 22.0606)
(0.51815 0.0440165 21.7376)
(0.522854 0.0189985 21.4984)
(0.51577 -0.00522532 21.3159)
(0.504929 -0.0214266 21.1933)
(0.491573 -0.0316443 21.1008)
(0.479086 -0.0345294 20.9952)
(0.468713 -0.0337352 20.8608)
(0.460432 -0.0305703 20.7138)
(0.454176 -0.0257201 20.5677)
(0.450518 -0.0213507 20.4397)
(0.446328 -0.0158926 20.3528)
(0.42119 0.00323761 24.1264)
(0.42293 0.00871768 24.1186)
(0.426274 0.0143225 24.1076)
(0.431791 0.0209915 24.0784)
(0.440128 0.029707 23.9268)
(0.451081 0.0399992 23.6631)
(0.465404 0.0507345 23.3302)
(0.486237 0.0582224 22.9342)
(0.507716 0.0538306 22.5455)
(0.522179 0.0398413 22.2197)
(0.528142 0.0190144 21.9663)
(0.523812 -0.00200902 21.7676)
(0.514623 -0.0168174 21.6069)
(0.502715 -0.0264754 21.4731)
(0.491028 -0.0298222 21.333)
(0.480505 -0.0298595 21.1703)
(0.471704 -0.0275018 20.9986)
(0.464491 -0.0234437 20.8315)
(0.460034 -0.019661 20.6867)
(0.454708 -0.0147228 20.5897)
(0.423866 0.00277697 24.2803)
(0.425592 0.00758059 24.2743)
(0.429031 0.0124407 24.2638)
(0.434343 0.0179898 24.2511)
(0.443021 0.0254585 24.1675)
(0.455023 0.0344916 23.9621)
(0.470014 0.0434446 23.6936)
(0.489771 0.0496421 23.359)
(0.510244 0.0464962 23.0001)
(0.525023 0.035384 22.6747)
(0.532275 0.01821 22.407)
(0.530286 0.000368838 22.1897)
(0.522662 -0.0129348 21.9924)
(0.512132 -0.0217303 21.8191)
(0.501182 -0.0252802 21.6407)
(0.490666 -0.0258823 21.4479)
(0.48155 -0.0241803 21.2519)
(0.473596 -0.0208399 21.0649)
(0.468527 -0.0176346 20.9044)
(0.462215 -0.0132876 20.7979)
(0.426357 0.0023376 24.4232)
(0.428074 0.00642264 24.4185)
(0.431637 0.0105772 24.41)
(0.436873 0.0150665 24.4003)
(0.445163 0.021039 24.3634)
(0.457791 0.028685 24.2213)
(0.473195 0.0363221 24.0022)
(0.492097 0.0414897 23.731)
(0.511589 0.0392838 23.418)
(0.526708 0.0305941 23.1048)
(0.535324 0.0167367 22.826)
(0.5353 0.00179914 22.5846)
(0.529359 -0.00973658 22.3521)
(0.520042 -0.0174454 22.1365)
(0.509748 -0.0209614 21.9164)
(0.499309 -0.0218761 21.6935)
(0.490022 -0.0206783 21.4741)
(0.481498 -0.0179838 21.2683)
(0.475966 -0.0153398 21.0933)
(0.468839 -0.0116255 20.978)
(0.428689 0.00190067 24.5568)
(0.430412 0.00524869 24.553)
(0.434038 0.00868405 24.5468)
(0.439376 0.0122597 24.538)
(0.447071 0.0166993 24.5239)
(0.459359 0.0227481 24.4421)
(0.475135 0.0292679 24.2685)
(0.493574 0.0337034 24.0489)
(0.512196 0.0322278 23.7883)
(0.527431 0.0254634 23.503)
(0.537372 0.0145618 23.219)
(0.539009 0.00258658 22.9504)
(0.534706 -0.00707526 22.6792)
(0.52653 -0.0135743 22.4176)
(0.516808 -0.0168378 22.1578)
(0.506527 -0.017872 21.906)
(0.497141 -0.0170523 21.6647)
(0.488183 -0.0149334 21.4414)
(0.482305 -0.0128335 21.2533)
(0.474507 -0.00977892 21.13)
(0.430876 0.00146474 24.682)
(0.432612 0.00407 24.6791)
(0.436259 0.00675263 24.6745)
(0.44173 0.0095231 24.6676)
(0.449104 0.0126531 24.66)
(0.46032 0.0169274 24.6243)
(0.475956 0.0221575 24.5033)
(0.494239 0.0261505 24.321)
(0.512402 0.0253051 24.1048)
(0.527776 0.0201102 23.8512)
(0.538453 0.0118069 23.5676)
(0.541681 0.00270146 23.2696)
(0.538768 -0.00491115 22.9579)
(0.531627 -0.0100863 22.6536)
(0.522436 -0.0128665 22.3608)
(0.512357 -0.0138421 22.0836)
(0.502905 -0.0133322 21.8217)
(0.493619 -0.0117364 21.583)
(0.487492 -0.010162 21.3835)
(0.479152 -0.00778102 21.2532)
(0.432939 0.00103955 24.7999)
(0.434695 0.0029013 24.7977)
(0.43836 0.00481251 24.7943)
(0.443887 0.00680234 24.7893)
(0.451243 0.00890124 24.7829)
(0.461403 0.0115229 24.7711)
(0.475845 0.0152245 24.7026)
(0.493964 0.0186276 24.5583)
(0.51229 0.0184012 24.369)
(0.528019 0.0146308 24.1326)
(0.539137 0.00874872 23.8435)
(0.543501 0.00229945 23.518)
(0.541659 -0.00320523 23.1753)
(0.535379 -0.00693649 22.8395)
(0.526657 -0.00904973 22.5205)
(0.516718 -0.00981472 22.2214)
(0.507276 -0.00954884 21.9427)
(0.497766 -0.00843417 21.6914)
(0.491478 -0.007364 21.4827)
(0.482706 -0.00564236 21.3469)
(0.434887 0.000592037 24.911)
(0.436641 0.00171184 24.9085)
(0.440298 0.0028629 24.9047)
(0.445808 0.0040629 24.8996)
(0.453194 0.00529968 24.8932)
(0.462799 0.00663802 24.8868)
(0.475503 0.0086598 24.8585)
(0.492747 0.0110489 24.7603)
(0.511625 0.0112868 24.5874)
(0.52812 0.00897299 24.3452)
(0.539588 0.00537901 24.0392)
(0.544704 0.00153017 23.6907)
(0.543432 -0.001795 23.3263)
(0.537813 -0.00402631 22.9693)
(0.529438 -0.00536611 22.6311)
(0.519634 -0.00585306 22.3161)
(0.510228 -0.00573501 22.0253)
(0.500585 -0.00506386 21.7649)
(0.494235 -0.00447609 21.5497)
(0.485099 -0.00344116 21.41)
(0.43666 0.000169374 25.0083)
(0.438301 0.000539772 24.9976)
(0.441845 0.000927972 24.9879)
(0.447264 0.00133377 24.9788)
(0.454588 0.00175241 24.97)
(0.464035 0.00215712 24.9616)
(0.475498 0.00276461 24.9486)
(0.491489 0.00363027 24.8969)
(0.510771 0.00379125 24.7337)
(0.52795 0.00301784 24.472)
(0.539622 0.00180409 24.1463)
(0.545141 0.000527273 23.7826)
(0.544132 -0.000577166 23.4053)
(0.538907 -0.00132161 23.0365)
(0.530774 -0.00178108 22.6881)
(0.521085 -0.0019457 22.3646)
(0.511741 -0.00191236 22.0672)
(0.502044 -0.00168339 21.8021)
(0.495733 -0.00151877 21.5836)
(0.486283 -0.00118372 21.4418)