# vtk DataFile Version 2.0
sampleSurface
ASCII
DATASET POLYDATA
POINTS 3098 float
0.746192 0 -5.00894e-05 -6.50534 1.11022e-16 -4.7391e-05 0.739507 0 7.49995 7.99812 0
1.94289e-05 -6.5124 -1.11022e-16 7.49992 7.99235 -1.11022e-16 7.50019 -13.7546 0 -1.50031e-05
0.734852 -1.11022e-16 14.9998 15.2496 -1.11022e-16 6.60617e-05 -13.7602 0 7.49982 -6.51784
-1.11022e-16 14.9998 15.2414 -1.11022e-16 7.50009 7.98685 0 14.9998 -13.7648 0
14.9999 -20.9938 0 4.36099e-06 15.2348 -1.11022e-16 14.9998 -20.9936 2.22045e-16 7.49977
22.5022 0 1.49541e-05 0.735071 0 22.4998 -6.51815 -1.11022e-16 22.4999 22.4915
0 7.49989 7.98745 -1.11022e-16 22.4998 -20.9933 -1.11022e-16 14.9999 -13.7652 1.11022e-16
22.4999 22.4829 -1.11022e-16 14.9998 15.2356 0 22.4998 -28.2515 0 2.62893e-05
-28.2534 0 7.50012 29.7556 -1.11022e-16 -4.54549e-05 0.735819 1.11022e-16 29.9999 29.7426
0 7.4992 -6.51767 0 29.9999 -20.9933 -1.11022e-16 22.5 7.98856 0
29.9999 22.4839 1.11022e-16 22.4999 -28.255 0 15 -13.7649 0 30
29.7256 0 14.9997 15.237 0 29.9999 -35.5072 -1.11022e-16 5.90779e-05 -28.2551
0 22.5 -35.5123 1.11022e-16 7.50007 -20.993 1.11022e-16 30 36.9932 0
-7.53554e-05 29.7252 1.11022e-16 22.4999 22.4857 -1.11022e-16 29.9999 0.736256 -1.11022e-16 37.5
37.0663 -1.11022e-16 7.5 -6.5174 0 37.5 7.98913 1.11022e-16 37.5 -35.5169
-2.22045e-16 15 36.9578 0 14.9999 -13.7648 0 37.5 15.2378 0
37.5 -28.255 0 30 -35.5174 0 22.5 29.7273 -1.11022e-16 30
-42.7594 0 0.000106246 -20.9929 1.11022e-16 37.5 36.9398 -3.33067e-16 22.4999 -42.765
0 7.50013 22.4866 -1.11022e-16 37.5 44.3067 1.11022e-16 -0.000173064 44.3156 -5.55112e-17
3.74923 44.3638 -1.11022e-16 7.50044 0.736588 -1.11022e-16 45 -42.7692 2.22045e-16 15.0001
-6.51713 0 45 7.98959 0 45 -35.5174 0 30 44.2537
1.11022e-16 14.9995 -28.2549 0 37.5 -13.7646 -2.22045e-16 45 15.2384 1.11022e-16
45 36.9405 0 30 29.7284 0 37.5 47.8983 5.55112e-17 -0.000231375
47.9106 0 3.74943 -42.7696 1.11022e-16 22.5 48.0131 0 7.50081 44.229
-2.22045e-16 22.4999 -20.9927 -1.11022e-16 45 -50 -1.11022e-16 0.000116555 22.4873 -1.11022e-16
45 -50 -1.11022e-16 7.50012 51.4805 0 -0.000354952 -35.5173 1.11022e-16 37.5
51.6484 5.55112e-17 3.75115 -50 -2.22045e-16 15.0001 51.6711 0 7.50084 -42.7696
0 30 0.736735 -1.11022e-16 52.5 36.9419 0 37.5 51.4953 -1.11022e-16
11.2492 -6.51706 0 52.5 7.98975 0 52.5 -28.2549 0 45
44.2289 -1.11022e-16 30 51.37 -5.55112e-17 14.9994 29.729 -1.11022e-16 45 -13.7646
0 52.5 51.3052 -2.1684e-19 18.7496 51.3048 -2.60209e-18 18.8318 15.2386 -2.22045e-16
52.5 51.3708 -2.38524e-18 18.7496 -50 1.11022e-16 22.5 54.9985 0 -0.00260162
55.0346 0 1.87535 55.1369 0 3.75138 55.3085 5.55112e-17 7.50038 51.2883
-5.55112e-17 22.4998 55.0461 -5.55112e-17 11.249 -20.9927 0 52.5 56.7456 0
0.0299735 56.7783 -2.77556e-17 1.87544 -42.7696 0 37.5 54.8698 0 14.9993
56.8619 2.77556e-17 3.75216 22.4876 1.11022e-16 52.5 -35.5173 -1.11022e-16 45 54.8229
0 17.1162 51.2808 6.93889e-18 26.2499 55.7413 -6.93889e-18 14.9994 54.8037 0
18.7496 44.2298 -1.11022e-16 37.5 36.9422 -2.22045e-16 45 -50 0 30
58.4645 0 -0.244693 58.5154 0 1.88535 58.9168 0 -0.257294 58.9375
1.38778e-17 1.84572 58.8346 1.38778e-17 4.04008 59.1468 -3.46945e-18 1.82581 59.2027 0
-0.270676 59.0815 0 3.9148 54.7907 0 22.4998 59.2532 0 -0.267831
59.2573 0 1.824 58.2324 -1.38778e-17 11.2624 59.254 0 3.02719 58.004
1.38778e-17 12.6256 59.2576 -3.46945e-18 3.82483 51.283 -6.245e-17 30 57.6498 2.77556e-17
14.9995 -28.2548 1.11022e-16 52.5 59.2774 -2.77556e-17 7.62697 58.8187 2.77556e-17 11.263
58.0011 -1.38778e-17 14.9995 0.736891 0 60 58.3071 0 14.9994 29.7293
1.11022e-16 52.5 59.2786 -2.77556e-17 11.2636 -6.5169 0 60 57.4289 2.77556e-17
18.7498 7.98997 -1.11022e-16 60 58.8533 5.55112e-17 14.9994 54.7868 1.249e-16 26.2499
58.0003 -1.38778e-17 18.7498 58.1668 0 18.7498 59.2769 -2.77556e-17 14.9994 51.2799
6.93889e-18 33.75 -13.7644 0 60 57.3667 0 22.4999 58.7945 0
18.7497 15.2389 1.11022e-16 60 -42.7696 -1.11022e-16 45 59.2786 -2.77556e-17 18.7497
57.9997 2.77556e-17 22.4999 58.1285 -6.245e-17 22.4999 54.7871 0 30 -50
0 37.5 58.7775 2.77556e-17 22.4999 57.3544 0 26.25 44.2301 -1.11022e-16
45 -35.5173 -2.22045e-16 52.5 59.2769 0 22.4998 51.283 -6.93889e-18 37.5
-20.9926 1.11022e-16 60 58.0001 0 26.25 58.1216 0 26.25 22.4878
1.11022e-16 60 36.9426 0 52.5 54.7861 -8.32667e-17 33.75 58.7756 0
26.25 57.3526 -1.66533e-16 30 59.2786 0 26.25 57.9997 -2.08167e-17 30
58.1203 2.08167e-17 30 51.28 0 41.25 58.7742 -5.55112e-17 30 -28.2547
0 60 54.7871 0 37.5 59.2769 0 30 57.3525 0
33.75 29.7295 0 60 58.0002 0 33.75 58.1205 -6.93889e-18 33.75
-50 0 45 0.736925 0 67.5 -42.7695 0 52.5 58.7752
-2.77556e-17 33.75 -6.5169 3.33067e-16 67.5 7.98998 -1.11022e-16 67.5 59.2786 2.77556e-17
33.75 51.2831 -3.46945e-17 45 57.3524 5.55112e-17 37.5 54.7862 1.38778e-17 41.25
44.2303 1.11022e-16 52.5 -13.7644 0 67.5 57.9998 0 37.5 58.1202
4.16334e-17 37.5 15.2389 -1.11022e-16 67.5 58.7741 0 37.5 -35.5171 1.11022e-16
60 59.2769 0 37.5 36.9425 0 60 57.3524 -5.55112e-17 41.25
-20.9926 -1.11022e-16 67.5 51.2801 -6.93889e-18 48.75 54.787 0 45 22.4878
2.22045e-16 67.5 58.0002 6.93889e-18 41.25 58.1204 0 41.25 58.7752 -2.77556e-17
41.25 59.2786 -2.77556e-17 41.25 -50 0 52.5 57.3524 0 45
-28.2547 1.11022e-16 67.5 54.7862 -2.77556e-17 48.75 51.2831 -6.245e-17 52.5 57.9998
6.93889e-18 45 58.1202 -6.93889e-18 45 -42.7695 -1.11022e-16 60 29.7296 0
67.5 58.7741 2.77556e-17 45 59.2769 0 45 44.2304 -2.22045e-16 60
0.737014 0 75 57.3524 0 48.75 -6.51679 -1.11022e-16 75 7.99012
-2.22045e-16 75 58.0002 -6.93889e-18 48.75 58.1204 0 48.75 54.787 -1.38778e-17
52.5 51.2801 0 56.25 -13.7644 0 75 -35.5171 -1.11022e-16 67.5
58.7752 2.77556e-17 48.75 15.239 0 75 59.2786 2.77556e-17 48.75 36.9428
2.22045e-16 67.5 57.3524 0 52.5 -20.9926 1.11022e-16 75 -50 -1.11022e-16
60 57.9998 6.93889e-18 52.5 22.4879 0 75 58.1202 -6.93889e-18 52.5
54.7862 -1.38778e-17 56.25 58.7741 2.77556e-17 52.5 51.2831 -1.38778e-17 60 59.2769
-2.77556e-17 52.5 -42.7695 0 67.5 -28.2547 1.11022e-16 75 57.3524 0
56.25 29.7296 0 75 44.2304 -1.11022e-16 67.5 58.0002 2.08167e-17 56.25
58.1204 6.93889e-18 56.25 54.7871 0 60 58.7752 2.77556e-17 56.25 59.2786
2.77556e-17 56.25 51.2801 0 63.75 0.737004 -1.11022e-16 82.5 -6.51683 0
82.5 7.99007 1.11022e-16 82.5 -35.5171 0 75 57.3524 0 60
57.9998 1.38778e-17 60 58.1202 4.85723e-17 60 36.9426 1.11022e-16 75 -13.7644
1.11022e-16 82.5 15.239 -2.22045e-16 82.5 58.7741 2.77556e-17 60 -50 2.22045e-16
67.5 54.7862 -2.77556e-17 63.75 59.2769 -2.77556e-17 60 51.2831 -6.245e-17 67.5
-20.9926 -1.11022e-16 82.5 22.4879 1.11022e-16 82.5 57.3524 0 63.75 58.0002
6.93889e-18 63.75 58.1204 6.93889e-18 63.75 -42.7695 0 75 58.7752 -2.77556e-17
63.75 54.787 0 67.5 59.2786 2.77556e-17 63.75 44.2304 0 75
-28.2547 -1.11022e-16 82.5 29.7297 0 82.5 51.2801 0 71.25 57.3524
0 67.5 57.9998 1.38778e-17 67.5 58.1202 4.85723e-17 67.5 58.7741 2.77556e-17
67.5 -35.5171 0 82.5 59.2769 -2.77556e-17 67.5 54.7862 -6.93889e-17 71.25
0.737067 -1.11022e-16 90 -50 -1.11022e-16 75 -6.51675 -1.11022e-16 90 7.99018
1.11022e-16 90 36.9429 2.22045e-16 82.5 51.2831 1.17961e-16 75 -13.7643 0
90 15.239 -1.11022e-16 90 57.3524 0 71.25 58.0002 6.93889e-18 71.25
58.1204 6.93889e-18 71.25 58.7752 -2.77556e-17 71.25 -20.9925 1.11022e-16 90 59.2786
2.77556e-17 71.25 22.488 1.11022e-16 90 54.7871 0 75 -42.7695 0
82.5 44.2305 0 82.5 51.2801 -6.93889e-18 78.75 -28.2547 -2.22045e-16 90
57.3524 0 75 29.7297 -1.11022e-16 90 57.9998 1.38778e-17 75 58.1202
4.85723e-17 75 58.7741 2.77556e-17 75 59.2769 -2.77556e-17 75 54.7862 0
78.75 -50 0 82.5 -35.5171 1.11022e-16 90 51.2831 -1.80411e-16 82.5
36.9427 1.11022e-16 90 57.3524 0 78.75 0.737038 0 97.5 -6.5168
0 97.5 58.0002 6.93889e-18 78.75 7.9901 -1.11022e-16 97.5 58.1204 6.93889e-18
78.75 58.7752 -2.77556e-17 78.75 -13.7644 2.22045e-16 97.5 59.2786 2.77556e-17 78.75
15.239 0 97.5 54.787 -1.38778e-17 82.5 -42.7695 -1.11022e-16 90 -20.9926
-1.11022e-16 97.5 22.4879 0 97.5 44.2304 1.11022e-16 90 51.2801 0
86.25 57.3524 0 82.5 57.9998 -6.93889e-18 82.5 58.1202 4.85723e-17 82.5
58.7741 2.77556e-17 82.5 -28.2547 0 97.5 59.2769 -2.77556e-17 82.5 29.7297
1.11022e-16 97.5 54.7862 1.38778e-17 86.25 -50 0 90 57.3524 0
86.25 51.2831 -6.93889e-18 90 -35.5171 -1.11022e-16 97.5 58.0002 1.38778e-17 86.25
58.1204 6.93889e-18 86.25 36.9429 2.22045e-16 97.5 58.7752 -2.77556e-17 86.25 59.2786
2.77556e-17 86.25 0.73709 -1.11022e-16 105 -6.51673 0 105 7.9902 -1.11022e-16
105 54.7871 0 90 -13.7643 0 105 15.239 1.11022e-16 105
-42.7695 -1.11022e-16 97.5 57.3524 0 90 51.2801 0 93.75 44.2305
1.11022e-16 97.5 57.9998 1.38778e-17 90 -20.9925 2.22045e-16 105 58.1202 4.85723e-17
90 22.4881 0 105 58.7741 2.77556e-17 90 59.2769 -2.77556e-17 90
54.7862 0 93.75 -28.2547 0 105 29.7297 0 105 -50
-1.11022e-16 97.5 57.3524 0 93.75 51.2831 -1.04083e-16 97.5 58.0002 6.93889e-18
93.75 58.1204 6.93889e-18 93.75 58.7752 -2.77556e-17 93.75 -35.5171 0 105
59.2786 2.77556e-17 93.75 36.9427 -1.11022e-16 105 54.787 1.38778e-17 97.5 0.737054
-1.11022e-16 112.5 -6.51679 2.22045e-16 112.5 7.99012 -1.11022e-16 112.5 57.3524 0
97.5 -13.7644 0 112.5 -42.7695 0 105 57.9998 1.38778e-17 97.5
51.2801 -6.93889e-18 101.25 58.1202 4.85723e-17 97.5 15.239 -1.11022e-16 112.5 58.7741
2.77556e-17 97.5 44.2305 1.11022e-16 105 59.2769 -2.77556e-17 97.5 -20.9926 1.11022e-16
112.5 22.4879 -1.11022e-16 112.5 54.7862 0 101.25 -28.2547 0 112.5
-50 2.22045e-16 105 29.7297 0 112.5 57.3524 0 101.25 58.0002
1.38778e-17 101.25 58.1204 6.93889e-18 101.25 51.2831 2.08167e-17 105 58.7752 -2.77556e-17
101.25 59.2786 2.77556e-17 101.25 -35.5171 -2.22045e-16 112.5 36.9429 1.11022e-16 112.5
54.7871 0 105 57.3524 0 105 57.9998 1.38778e-17 105 0.737101
-1.11022e-16 120 58.1202 4.85723e-17 105 -6.51672 0 120 51.2801 6.93889e-18
108.75 7.99022 -1.11022e-16 120 58.7741 2.77556e-17 105 -42.7695 0 112.5
59.2769 -2.77556e-17 105 -13.7643 -1.11022e-16 120 44.2305 0 112.5 15.239
-1.11022e-16 120 54.7862 -2.77556e-17 108.75 -20.9925 0 120 22.4881 0
120 57.3524 0 108.75 -50 0 112.5 58.0002 6.93889e-18 108.75
[...]
POINT_DATA 3098
FIELD attributes 2
p 1 3098 float
0 0 0 0 0 0 0 0 0 0 0
0 0 0 0 0 0 0 0 0 0
0 0 0 0 0 0 0 0 0 0
0 0 0 0 0 0 0 0 0 0
0 0 0 0 0 0 0 0 0 0
0 0 0 0 0 0 0 0 0 0
0 0 0 0 0 0 0 0 0 0
0 0 0 0 0 0 0 0 0 0
0 0 0 0 0 0 0 0 0 0
0 0 0 0 0 0 0 0 0 0
0 0 0 0 0 0 0 0 0 0
0 0 0 0 0 0 0 0 0 0
0 0 0 0 0 0 0 0 0 0
0 0 0 0 0 0 0 0 0 0
0 0 0 0 0 0 0 0 0 0
0 0 0 0 0 0 0 0 0 0
0 0 0 0 0 0 0 0 0 0
0 0 0 0 0 0 0 0 0 0
0 0 0 0 0 0 0 0 0 0
0 0 0 0 0 0 0 0 0 0
0 0 0 0 0 0 0 0 0 0
0 0 0 0 0 0 0 0 0 0
0 0 0 0 0 0 0 0 0 0
0 0 0 0 0 0 0 0 0 0
0 0 0 0 0 0 0 0 0 0
0 0 0 0 0 0 0 0 0 0
0 0 0 0 0 0 0 0 0 0
0 0 0 0 0 0 0 0 0 0
0 0 0 0 0 0 0 0 0 0
0 0 0 0 0 0 0 0 0 0
0 0 0 0 0 0 0 0 0 0
0 0 0 0 0 0 0 0 0 0
0 0 0 0 0 0 0 0 0 0
0 0 0 0 0 0 0 0 0 0
0 0 0 0 0 0 0 0 0 0
0 0 0 0 0 0 0 0 0 0
0 0 0 0 0 0 0 0 0 0
0 0 0 0 0 0 0 0 0 0
0 0 0 0 0 0 0 0 0 0
0 0 0 0 0 0 0 0 0 0
0 0 0 0 0 0 0 0 0 0
0 0 0 0 0 0 0 0 0 0
0 0 0 0 0 0 0 0 0 0
0 0 0 0 0 0 0 0 0 0
0 0 0 0 0 0 0 0 0 0
0 0 0 0 0 0 0 0 0 0
0 0 0 0 0 0 0 0 0 0
0 0 0 0 0 0 0 0 0 0
0 0 0 0 0 0 0 0 0 0
0 0 0 0 0 0 0 0 0 0
0 0 0 0 0 0 0 0 0 0
0 0 0 0 0 0 0 0 0 0
0 0 0 0 0 0 0 0 0 0
0 0 0 0 0 0 0 0 0 0
0 0 0 0 0 0 0 0 0 0
0 0 0 0 0 0 0 0 0 0
0 0 0 0 0 0 0 0 0 0
0 0 0 0 0 0 0 0 0 0
0 0 0 0 0 0 0 0 0 0
0 0 0 0 0 0 0 0 0 0
0 0 0 0 0 0 0 0 0 0
0 0 0 0 0 0 0 0 0 0
0 0 0 0 0 0 0 0 0 0
0 0 0 0 0 0 0 0 0 0
0 0 0 0 0 0 0 0 0 0
0 0 0 0 0 0 0 0 0 0
0 0 0 0 0 0 0 0 0 0
0 0 0 0 0 0 0 0 0 0
0 0 0 0 0 0 0 0 0 0
0 0 0 0 0 0 0 0 0 0
0 0 0 0 0 0 0 0 0 0
0 0 0 0 0 0 0 0 0 0
0 0 0 0 0 0 0 0 0 0
0 0 0 0 0 0 0 0 0 0
0 0 0 0 0 0 0 0 0 0
0 0 0 0 0 0 0 0 0 0
0 0 0 0 0 0 0 0 0 0
0 0 0 0 0 0 0 0 0 0
0 0 0 0 0 0 0 0 0 0
0 0 0 0 0 0 0 0 0 0
0 0 0 0 0 0 0 0 0 0
0 0 0 0 0 0 0 0 0 0
0 0 0 0 0 0 0 0 0 0
0 0 0 0 0 0 0 0 0 0
0 0 0 0 0 0 0 0 0 0
0 0 0 0 0 0 0 0 0 0
0 0 0 0 0 0 0 0 0 0
0 0 0 0 0 0 0 0 0 0
0 0 0 0 0 0 0 0 0 0
0 0 0 0 0 0 0 0 0 0
0 0 0 0 0 0 0 0 0 0
0 0 0 0 0 0 0 0 0 0
0 0 0 0 0 0 0 0 0 0
0 0 0 0 0 0 0 0 0 0
0 0 0 0 0 0 0 0 0 0
0 0 0 0 0 0 0 0 0 0
0 0 0 0 0 0 0 0 0 0
0 0 0 0 0 0 0 0 0 0
0 0 0 0 0 0 0 0 0 0
0 0 0 0 0 0 0 0 0 0
0 0 0 0 0 0 0 0 0 0
0 0 0 0 0 0 0 0 0 0
0 0 0 0 0 0 0 0 0 0
0 0 0 0 0 0 0 0 0 0
0 0 0 0 0 0 0 0 0 0
0 0 0 0 0 0 0 0 0 0
0 0 0 0 0 0 0 0 0 0
0 0 0 0 0 0 0 0 0 0
0 0 0 0 0 0 0 0 0 0
0 0 0 0 0 0 0 0 0 0
0 0 0 0 0 0 0 0 0 0
0 0 0 0 0 0 0 0 0 0
0 0 0 0 0 0 0 0 0 0
0 0 0 0 0 0 0 0 0 0
0 0 0 0 0 0 0 0 0 0
0 0 0 0 0 0 0 0 0 0
0 0 0 0 0 0 0 0 0 0
0 0 0 0 0 0 0 0 0 0
0 0 0 0 0 0 0 0 0 0
0 0 0 0 0 0 0 0 0 0
0 0 0 0 0 0 0 0 0 0
0 0 0 0 0 0 0 0 0 0
0 0 0 0 0 0 0 0 0 0
0 0 0 0 0 0 0 0 0 0
0 0 0 0 0 0 0 0 0 0
0 0 0 0 0 0 0 0 0 0
0 0 0 0 0 0 0 0 0 0
0 0 0 0 0 0 0 0 0 0
0 0 0 0 0 0 0 0 0 0
0 0 0 0 0 0 0 0 0 0
0 0 0 0 0 0 0 0 0 0
0 0 0 0 0 0 0 0 0 0
0 0 0 0 0 0 0 0 0 0
0 0 0 0 0 0 0 0 0 0
0 0 0 0 0 0 0 0 0 0
0 0 0 0 0 0 0 0 0 0
0 0 0 0 0 0 0 0 0 0
0 0 0 0 0 0 0 0 0 0
0 0 0 0 0 0 0 0 0 0
0 0 0 0 0 0 0 0 0 0
0 0 0 0 0 0 0 0 0 0
0 0 0 0 0 0 0 0 0 0
0 0 0 0 0 0 0 0 0 0
0 0 0 0 0 0 0 0 0 0
0 0 0 0 0 0 0 0 0 0
0 0 0 0 0 0 0 0 0 0
0 0 0 0 0 0 0 0 0 0
0 0 0 0 0 0 0 0 0 0
0 0 0 0 0 0 0 0 0 0
0 0 0 0 0 0 0 0 0 0
0 0 0 0 0 0 0 0 0 0
0 0 0 0 0 0 0 0 0 0
0 0 0 0 0 0 0 0 0 0
0 0 0 0 0 0 0 0 0 0
0 0 0 0 0 0 0 0 0 0
0 0 0 0 0 0 0 0 0 0
0 0 0 0 0 0 0 0 0 0
0 0 0 0 0 0 0 0 0 0
0 0 0 0 0 0 0 0 0 0
0 0 0 0 0 0 0 0 0 0
0 0 0 0 0 0 0 0 0 0
0 0 0 0 0 0 0 0 0 0
0 0 0 0 0 0 0 0 0 0
0 0 0 0 0 0 0 0 0 0
0 0 0 0 0 0 0 0 0 0
0 0 0 0 0 0 0 0 0 0
0 0 0 0 0 0 0 0 0 0
0 0 0 0 0 0 0 0 0 0
0 0 0 0 0 0 0 0 0 0
0 0 0 0 0 0 0 0 0 0
0 0 0 0 0 0 0 0 0 0
0 0 0 0 0 0 0 0 0 0
0 0 0 0 0 0 0 0 0 0
0 0 0 0 0 0 0 0 0 0
0 0 0 0 0 0 0 0 0 0
0 0 0 0 0 0 0 0 0 0
0 0 0 0 0 0 0 0 0 0
0 0 0 0 0 0 0 0 0 0
0 0 0 0 0 0 0 0 0 0
0 0 0 0 0 0 0 0 0 0
0 0 0 0 0 0 0 0 0 0
0 0 0 0 0 0 0 0 0 0
0 0 0 0 0 0 0 0 0 0
0 0 0 0 0 0 0 0 0 0
0 0 0 0 0 0 0 0 0 0
0 0 0 0 0 0 0 0 0 0
0 0 0 0 0 0 0 0 0 0
0 0 0 0 0 0 0 0 0 0
0 0 0 0 0 0 0 0 0 0
0 0 0 0 0 0 0 0 0 0
0 0 0 0 0 0 0 0 0 0
0 0 0 0 0 0 0 0 0 0
0 0 0 0 0 0 0 0 0 0
0 0 0 0 0 0 0 0 0 0
0 0 0 0 0 0 0 0 0 0
0 0 0 0 0 0 0 0 0 0
0 0 0 0 0 0 0 0 0 0
0 0 0 0 0 0 0 0 0 0
0 0 0 0 0 0 0 0 0 0
0 0 0 0 0 0 0 0 0 0
0 0 0 0 0 0 0 0 0 0
0 0 0 0 0 0 0 0 0 0
0 0 0 0 0 0 0 0 0 0
0 0 0 0 0 0 0 0 0 0
0 0 0 0 0 0 0 0 0 0
0 0 0 0 0 0 0 0 0 0
0 0 0 0 0 0 0 0 0 0
0 0 0 0 0 0 0 0 0 0
0 0 0 0 0 0 0 0 0 0
0 0 0 0 0 0 0 0 0 0
0 0 0 0 0 0 0 0 0 0
0 0 0 0 0 0 0 0 0 0
0 0 0 0 0 0 0 0 0 0
0 0 0 0 0 0 0 0 0 0
0 0 0 0 0 0 0 0 0 0
0 0 0 0 0 0 0 0 0 0
0 0 0 0 0 0 0 0 0 0
0 0 0 0 0 0 0 0 0 0
0 0 0 0 0 0 0 0 0 0
0 0 0 0 0 0 0 0 0 0
0 0 0 0 0 0 0 0 0 0
0 0 0 0 0 0 0 0 0 0
0 0 0 0 0 0 0 0 0 0
0 0 0 0 0 0 0 0 0 0
0 0 0 0 0 0 0 0 0 0
0 0 0 0 0 0 0 0 0 0
0 0 0 0 0 0 0 0 0 0
0 0 0 0 0 0 0 0 0 0
0 0 0 0 0 0 0 0 0 0
0 0 0 0 0 0 0 0 0 0
0 0 0 0 0 0 0 0 0 0
0 0 0 0 0 0 0 0 0 0
0 0 0 0 0 0 0 0 0 0
0 0 0 0 0 0 0 0 0 0
0 0 0 0 0 0 0 0 0 0
0 0 0 0 0 0 0 0 0 0
0 0 0 0 0 0 0 0 0 0
0 0 0 0 0 0 0 0 0 0
0 0 0 0 0 0 0 0 0 0
0 0 0 0 0 0 0 0 0 0
0 0 0 0 0 0 0 0 0 0
0 0 0 0 0 0 0 0 0 0
0 0 0 0 0 0 0 0 0 0
0 0 0 0 0 0 0 0 0 0
0 0 0 0 0 0 0 0 0 0
0 0 0 0 0 0 0 0 0 0
0 0 0 0 0 0 0 0 0 0
0 0 0 0 0 0 0 0 0 0
0 0 0 0 0 0 0 0 0 0
0 0 0 0 0 0 0 0 0 0
0 0 0 0 0 0 0 0 0 0
0 0 0 0 0 0 0 0 0 0
0 0 0 0 0 0 0 0 0 0
0 0 0 0 0 0 0 0 0 0
0 0 0 0 0 0 0 0 0 0
0 0 0 0 0 0 0 0 0 0
0 0 0 0 0 0 0 0 0 0
0 0 0 0 0 0 0 0 0 0
0 0 0 0 0 0 0 0 0 0
0 0 0 0 0 0 0 0 0 0
0 0 0 0 0 0 0 0 0 0
0 0 0 0 0 0 0 0 0 0
0 0 0 0 0 0 0 0 0 0
0 0 0 0 0 0 0 0 0 0
0 0 0 0 0 0 0 0 0 0
0 0 0 0 0 0 0 0 0 0
0 0 0 0 0 0 0 0 0 0
0 0 0 0 0 0 0 0 0 0
0 0 0 0 0 0 0 0 0 0
0 0 0 0 0 0 0 0 0 0
0 0 0 0 0 0 0 0 0 0
0 0 0 0 0 0 0 0 0 0
0 0 0 0 0 0 0 0 0 0
0 0 0 0 0 0 0 0 0 0
0 0 0 0 0 0 0 0 0 0
0 0 0 0 0 0 0 0 0 0
0 0 0 0 0 0 0 0 0 0
0 0 0 0 0 0 0 0 0 0
0 0 0 0 0 0 0 0 0 0
0 0 0 0 0 0 0 0 0 0
0 0 0 0 0 0 0 0 0 0
0 0 0 0 0 0 0 0 0 0
0 0 0 0 0 0 0 0 0 0
0 0 0 0 0 0 0 0 0 0
0 0 0 0 0 0 0 0 0 0
0 0 0 0 0 0 0 0 0 0
0 0 0 0 0 0 0 0 0 0
0 0 0 0 0 0 0 0 0 0
0 0 0 0 0 0 0 0 0 0
0 0 0 0 0 0 0 0 0 0
0 0 0 0 0 0 0 0 0 0
0 0 0 0 0 0 0 0 0 0
0 0 0 0 0 0 0 0 0 0
0 0 0 0 0 0 0 0 0 0
0 0 0 0 0 0 0 0 0 0
0 0 0 0 0 0 0 0 0 0
0 0 0 0 0 0 0 0 0 0
0 0 0 0 0 0 0 0 0 0
0 0 0 0 0 0 0 0 0 0
0 0 0 0 0 0 0 0 0 0
0 0 0 0 0 0 0 0 0 0
0 0 0 0 0 0 0 0 0 0
0 0 0 0 0 0 0 0 0 0
0 0 0 0 0 0 0 0 0 0
0 0 0 0 0 0 0 0 0 0
0 0 0 0 0 0 0 0 0 0
0 0 0 0 0 0 0 0 0 0
0 0 0 0 0 0 0 0 0 0
0 0 0 0 0 0 0 0 0 0
0 0 0 0 0 0 0 
U 3 3098 float
-0.000165595 4.07683e-05 -2.63242e-07 -0.000131577 3.57704e-05 -2.07321e-08 -0.000165867 3.87281e-05 -2.34905e-07 -0.000204565 4.193e-05
7.77418e-08 -0.000131575 3.51727e-05 -4.73111e-08 -0.000204768 4.15778e-05 3.54599e-07 -0.000103708 3.30005e-05 -5.60496e-08
-0.000166228 3.84557e-05 5.06302e-07 -0.000249715 4.42887e-05 -4.82062e-08 -0.00010377 3.22231e-05 -1.41936e-07 -0.000132787
3.54993e-05 3.7769e-07 -0.00024984 4.30932e-05 -1.5773e-08 -0.000205105 4.09517e-05 5.82026e-07 -0.000104005 3.20134e-05
2.59462e-07 -7.89065e-05 3.04543e-05 -7.44663e-08 -0.000249871 4.26925e-05 5.21673e-07 -7.89882e-05 2.96996e-05 -3.21922e-08
-0.000300217 4.24398e-05 -1.08088e-07 -0.000166158 3.8702e-05 7.55302e-07 -0.000132693 3.56943e-05 6.82124e-07 -0.000300176
4.12812e-05 6.72708e-08 -0.000205043 4.13092e-05 8.43346e-07 -7.90612e-05 2.93441e-05 3.29217e-07 -0.000103936 3.21553e-05
6.15422e-07 -0.000299955 4.08755e-05 6.56354e-07 -0.000249786 4.31807e-05 8.96853e-07 -5.68878e-05 2.76633e-05 -6.41336e-08
-5.69681e-05 2.69571e-05 -3.25363e-08 -0.000356253 3.49013e-05 -3.61605e-08 -0.000166082 3.87492e-05 8.16282e-07 -0.000356251
3.17468e-05 -4.32073e-07 -0.000132624 3.57207e-05 7.33613e-07 -7.90082e-05 2.9452e-05 5.92264e-07 -0.000204964 4.13935e-05
9.00901e-07 -0.000299851 4.14883e-05 1.01627e-06 -5.69881e-05 2.66278e-05 2.961e-07 -0.000103879 3.21641e-05 6.68403e-07
-0.000355799 3.08148e-05 4.77975e-07 -0.000249703 4.32947e-05 9.94036e-07 -3.66838e-05 2.58351e-05 -5.77996e-08 -5.6921e-05
2.67405e-05 5.3831e-07 -3.67582e-05 2.51484e-05 1.19461e-08 -7.89595e-05 2.94609e-05 6.23509e-07 -0.000415675 5.90666e-06
1.03741e-07 -0.000355909 3.17012e-05 9.42796e-07 -0.000299781 4.16518e-05 1.09698e-06 -0.000165989 3.87294e-05 8.87512e-07
-0.000418608 1.08014e-05 1.38452e-06 -0.000132542 3.57158e-05 7.93186e-07 -0.000204866 4.13639e-05 9.8693e-07 -3.67838e-05
2.48177e-05 2.91236e-07 -0.000415064 6.01263e-06 3.15547e-06 -0.000103817 3.21728e-05 7.19715e-07 -0.000249603 4.32642e-05
1.10402e-06 -5.68761e-05 2.67483e-05 5.85668e-07 -3.6732e-05 2.49256e-05 5.00248e-07 -0.000355877 3.18838e-05 1.16489e-06
-1.78623e-05 2.44674e-05 -3.42134e-08 -7.89203e-05 2.94665e-05 6.66572e-07 -0.000414974 6.93386e-06 1.79418e-06 -1.79178e-05
2.38692e-05 2.9709e-08 -0.00029968 4.16233e-05 1.22307e-06 -0.000470822 -4.20001e-05 4.53077e-07 -0.000466242 -5.07143e-05
-4.04131e-06 -0.000470272 -4.63192e-05 -2.99984e-06 -0.000165883 3.87373e-05 9.89398e-07 -1.79512e-05 2.36527e-05 2.73495e-07
-0.000132453 3.57258e-05 8.88889e-07 -0.000204745 4.13668e-05 1.10415e-06 -3.66985e-05 2.49348e-05 5.59174e-07 -0.000477384
-3.54278e-05 -5.3586e-07 -5.68528e-05 2.67391e-05 6.33575e-07 -0.000103748 3.21847e-05 8.08673e-07 -0.00024947 4.32618e-05
1.24298e-06 -0.000415098 7.24623e-06 1.3588e-06 -0.000355762 3.18267e-05 1.35044e-06 -0.00049853 -7.60896e-05 -8.11608e-07
-0.000494452 -7.49515e-05 1.28431e-06 -1.79371e-05 2.37617e-05 4.66802e-07 -0.000497948 -7.20401e-05 1.98585e-07 -0.000477973
-3.41222e-05 6.41119e-07 -7.88714e-05 2.94765e-05 7.46078e-07 1.31262e-15 0 21.4366 -0.000299539 4.1623e-05
1.38917e-06 1.31246e-15 0 21.434 -0.000532917 -0.000159861 -1.75016e-06 -3.66859e-05 2.49148e-05 6.12615e-07
-0.00053875 -0.000164679 3.3404e-06 1.31238e-15 0 21.4328 -0.000538268 -0.000170473 2.61968e-06 -1.79205e-05
2.37688e-05 5.41811e-07 -0.000165767 3.87409e-05 1.0752e-06 -0.000414969 7.2021e-06 1.51481e-06 -0.000530237 -0.000195403
5.59254e-06 -0.000132357 3.57273e-05 9.68074e-07 -0.000204607 4.13702e-05 1.2002e-06 -5.6821e-05 2.67419e-05 7.0309e-07
-0.000478294 -3.39235e-05 1.27754e-06 -0.000529079 -0.000190496 7.86906e-06 -0.0003556 3.18426e-05 1.54581e-06 -0.00010367
3.21876e-05 8.80935e-07 -0.000531967 -0.000197065 5.7272e-06 -0.000531948 -0.000196919 5.66477e-06 -0.000249314 4.32526e-05
1.35097e-06 -0.000531993 -0.00019843 5.65251e-06 1.31244e-15 0 21.4338 -0.000547094 -0.000295762 -1.40779e-06
-0.000544661 -0.000307197 9.04373e-07 -0.000546952 -0.000298117 8.73659e-07 -0.000556486 -0.000285741 1.02803e-06 -0.000531003
-0.000188824 2.74234e-06 -0.000537192 -0.000276704 -5.52678e-07 -7.88119e-05 2.94816e-05 8.11069e-07 -0.000562216 -0.000349451
1.47837e-06 -0.000563241 -0.000350908 9.17782e-06 -1.79167e-05 2.37404e-05 6.03022e-07 -0.000531508 -0.000272198 6.61854e-07
-0.000561265 -0.000347271 1.26867e-05 -0.000299374 4.16118e-05 1.51753e-06 -3.66677e-05 2.49113e-05 6.75418e-07 -0.000532007
-0.000270286 1.30878e-06 -0.000532655 -0.000195281 1.89928e-06 -0.000540733 -0.000291753 -4.16305e-06 -0.000533394 -0.000268433
1.60645e-06 -0.000478137 -3.39152e-05 1.6929e-06 -0.000414771 7.2482e-06 1.73504e-06 1.31245e-15 0 21.434
-0.000608848 -0.00038589 -1.29183e-05 -0.000610031 -0.000386828 3.04205e-05 -0.00063843 -0.000397451 -1.36724e-05 -0.000645726
-0.000397769 4.68898e-05 -0.000598709 -0.000372463 8.23099e-05 -0.000216105 -0.000130694 1.5238e-05 -9.04183e-05 -5.48911e-05
-1.92951e-06 -0.000615008 -0.000383691 0.000134223 -0.000534713 -0.000267152 1.62634e-06 0 0 0
0 0 0 -0.000573527 -0.000361759 -1.88649e-05 0 0 0 -0.000564324
-0.000347316 -1.79529e-05 0 0 0 -0.000531186 -0.000188306 1.67545e-06 -0.000563262 -0.00033243
-1.51454e-05 -5.67804e-05 2.67478e-05 7.6001e-07 0 0 0 -0.000630437 -0.000410101 -2.01686e-05
-0.000585943 -0.000350468 -1.55073e-05 -0.000165644 3.87427e-05 1.13747e-06 -0.000614957 -0.000373643 -1.49195e-05 -0.000355414
3.18607e-05 1.69947e-06 0 0 0 -0.000132254 3.57287e-05 1.02518e-06 -0.00056422 -0.000322258
-5.80138e-06 -0.000204461 4.13742e-05 1.26849e-06 -0.000631294 -0.000408728 -8.42943e-06 -0.000535017 -0.000266678 1.72576e-06
-0.000593742 -0.000351864 -5.01223e-06 -0.000607162 -0.000364298 -4.53484e-06 0 0 0 -0.000532336
-0.000195067 1.81536e-06 -0.000103586 3.21891e-05 9.33198e-07 -0.000564232 -0.000318876 -3.56645e-07 -0.000623064 -0.000405249
-3.26733e-07 -0.000249146 4.32605e-05 1.42391e-06 -1.79095e-05 2.37306e-05 6.61423e-07 0 0 0
-0.000595054 -0.000350904 -2.80566e-08 -0.000605368 -0.000360602 1.00885e-07 -0.000534916 -0.000266466 1.78938e-06 1.31245e-15
0 21.434 -0.000623175 -0.000404556 1.20457e-06 -0.000564336 -0.000317822 1.31719e-06 -0.000477895 -3.38555e-05
1.97289e-06 -3.66433e-05 2.49133e-05 7.26055e-07 0 0 0 -0.000530859 -0.000188171 1.98183e-06
-7.87469e-05 2.94836e-05 8.59276e-07 -0.000595487 -0.000350414 1.45077e-06 -0.000604913 -0.000359385 1.49358e-06 -0.000299182
4.16249e-05 1.60382e-06 -0.000414536 7.28364e-06 1.91613e-06 -0.000534742 -0.00026641 1.92944e-06 -0.00062166 -0.000403059
1.78947e-06 -0.000563887 -0.000317527 1.78841e-06 0 0 0 -0.000594859 -0.000350138 1.8638e-06
-0.000604439 -0.000359214 1.8856e-06 -0.000532023 -0.000194891 2.15658e-06 -0.000622463 -0.000403793 1.98785e-06 -5.67336e-05
2.67494e-05 8.03315e-07 -0.00053458 -0.000266267 2.10606e-06 0 0 0 -0.000563929 -0.000317423
2.00298e-06 -0.000355195 3.1889e-05 1.8118e-06 -0.000595034 -0.000350061 2.05525e-06 -0.000604348 -0.000358943 2.06847e-06
1.31246e-15 0 21.434 -0.000165516 3.87434e-05 1.171e-06 -1.78983e-05 2.37293e-05 7.0727e-07 -0.00062116
-0.000402696 2.11961e-06 -0.000132147 3.57276e-05 1.0564e-06 -0.000204312 4.13813e-05 1.30504e-06 0 0
0 -0.00053055 -0.000188064 2.27279e-06 -0.00056353 -0.000317287 2.17796e-06 -0.000534432 -0.000266207 2.26022e-06
-0.000477614 -3.38197e-05 2.18241e-06 -0.000103498 3.2187e-05 9.61928e-07 -0.000594484 -0.000349894 2.21909e-06 -0.000604048
-0.000358957 2.22961e-06 -0.000248969 4.32739e-05 1.46257e-06 -0.000622086 -0.000403541 2.26939e-06 -3.66136e-05 2.49139e-05
7.64552e-07 0 0 0 -0.000414278 7.331e-06 2.05796e-06 -0.000563626 -0.000317214 2.33648e-06
-7.86778e-05 2.94812e-05 8.85628e-07 -0.000531709 -0.000194785 2.41235e-06 -0.000534274 -0.000266113 2.38746e-06 -0.000298975
4.16472e-05 1.64892e-06 -0.000594727 -0.000349853 2.37942e-06 -0.000604037 -0.000358731 2.39102e-06 -0.000620839 -0.000402477
2.43444e-06 0 0 0 1.31245e-15 0 21.434 -0.000563216 -0.000317104 2.46801e-06
-5.66828e-05 2.67486e-05 8.26601e-07 -0.000534119 -0.000266048 2.51928e-06 -0.000530222 -0.000187922 2.5212e-06 -0.000594152
-0.000349693 2.51624e-06 -0.00060371 -0.00035875 2.53e-06 -1.78837e-05 2.37293e-05 7.42195e-07 -0.000354953 3.19211e-05
1.87357e-06 -0.000621733 -0.000403309 2.58187e-06 0 0 0 -0.000477309 -3.37541e-05 2.34478e-06
-0.000165387 3.87507e-05 1.17645e-06 -0.000563282 -0.000317016 2.59926e-06 -0.000132038 3.57324e-05 1.06092e-06 -0.000204161
4.13938e-05 1.31182e-06 -0.000594347 -0.000349629 2.64694e-06 -0.000603649 -0.000358502 2.65931e-06 -0.000533946 -0.000265926
2.64994e-06 -0.00053136 -0.000194621 2.63091e-06 -0.000103409 3.21894e-05 9.65173e-07 -3.65805e-05 2.49136e-05 7.84919e-07
-0.000620445 -0.000402224 2.70492e-06 -0.000248791 4.32997e-05 1.46949e-06 0 0 0 -0.000413998
7.38202e-06 2.13226e-06 -0.000562873 -0.000316895 2.73279e-06 -7.86069e-05 2.94832e-05 8.88157e-07 1.31245e-15 0
21.434 -0.00059379 -0.00034947 2.77942e-06 -0.000298759 4.1686e-05 1.65851e-06 -0.000603343 -0.000358524 2.79113e-06
-0.000533769 -0.000265856 2.74985e-06 -0.00062136 -0.000403064 2.8342e-06 -0.000529873 -0.000187787 2.69211e-06 0
0 0 -1.78674e-05 2.37294e-05 7.60943e-07 -5.66297e-05 2.67514e-05 8.28556e-07 -0.000562935 -0.000316813
2.83982e-06 -0.000354698 3.19603e-05 1.89119e-06 -0.000476985 -3.36807e-05 2.42498e-06 -0.000594002 -0.000349417 2.89164e-06
-0.000603302 -0.000358285 2.90516e-06 -0.000533588 -0.000265745 2.82149e-06 -0.000620083 -0.000401982 2.95503e-06 0
0 0 -0.000531017 -0.000194487 2.76902e-06 -0.000165257 3.8759e-05 1.15532e-06 -0.000131929 3.57375e-05
1.03994e-06 -0.000204009 4.14112e-05 1.29224e-06 -3.65459e-05 2.49176e-05 7.86007e-07 -0.000562497 -0.000316683 2.9141e-06
-0.000593397 -0.000349236 2.9709e-06 -0.000602943 -0.000358284 2.98667e-06 -0.00041372 7.43898e-06 2.15765e-06 -0.00010332
3.2194e-05 9.44381e-07 -0.000248612 4.33334e-05 1.45305e-06 -0.000620941 -0.00040279 3.0451e-06 1.31245e-15 0
21.434 -0.000533415 -0.000265669 2.88595e-06 0 0 0 -0.000529521 -0.000187636 2.80955e-06
-7.85365e-05 2.9487e-05 8.68373e-07 -0.000298539 4.17328e-05 1.64338e-06 -0.000562538 -0.000316585 2.97474e-06 -0.000593566
-0.000349162 3.02842e-06 -0.000602857 -0.000358025 3.04205e-06 -1.78509e-05 2.37326e-05 7.6108e-07 -0.000619636 -0.000401693
3.09132e-06 -0.000533232 -0.00026554 2.9436e-06 0 0 0 -0.000476641 -3.35743e-05 2.44245e-06
-5.65773e-05 2.67556e-05 8.102e-07 -0.000354442 3.19953e-05 1.86676e-06 -0.000530652 -0.00019435 2.85284e-06 -0.000562119
-0.000316453 3.02624e-06 -0.000592998 -0.000348993 3.07266e-06 -0.000602539 -0.000358038 3.08485e-06 -0.00062054 -0.000402524
3.13009e-06 -3.65109e-05 2.49226e-05 7.68104e-07 0 0 0 -0.000533065 -0.000265491 2.96867e-06
-0.000165126 3.87723e-05 1.11274e-06 1.31246e-15 0 21.434 -0.00013182 3.5748e-05 9.98084e-07 -0.000203853
4.14264e-05 1.25087e-06 -0.000413434 7.48193e-06 2.12178e-06 -0.000529164 -0.000187569 2.80579e-06 -0.000103232 3.22035e-05
9.0413e-07 -0.000248428 4.33496e-05 1.41453e-06 -0.000562193 -0.000316382 3.04654e-06 -0.000593216 -0.000348946 3.08771e-06
-0.000602503 -0.000357805 3.09954e-06 -0.000619268 -0.000401448 3.14446e-06 -7.84682e-05 2.94955e-05 8.30358e-07 0
0 0 -0.000298331 4.17499e-05 1.60083e-06 -0.000532905 -0.000265427 2.93431e-06 -1.78332e-05 2.37388e-05
7.42537e-07 -0.000476347 -3.35014e-05 2.41283e-06 -0.000530305 -0.000194209 2.76841e-06 -5.65262e-05 2.67622e-05 7.74852e-07
-0.000561805 -0.000316289 3.01826e-06 -0.000354206 3.20316e-05 1.80083e-06 -0.00059267 -0.0003488 3.0669e-06 -0.000602203
-0.000357837 3.08007e-06 -0.00062017 -0.000402287 3.12943e-06 0 0 0 -0.000532722 -0.000265311
2.88832e-06 1.31246e-15 0 21.434 -3.64761e-05 2.49306e-05 7.34672e-07 -0.000528815 -0.000187302 2.75242e-06
-0.00041317 7.55144e-06 2.03506e-06 -0.00056184 -0.000316172 2.98297e-06 -0.000164995 3.87777e-05 1.04701e-06 -0.000131713
3.57556e-05 9.37534e-07 -0.000592843 -0.000348717 3.04327e-06 -0.000203697 4.14288e-05 1.17923e-06 -0.000602124 -0.00035757
3.05733e-06 -0.000618871 -0.000401188 3.10806e-06 -0.000103146 3.22147e-05 8.48784e-07 0 0 0
-0.00024825 4.33421e-05 1.33436e-06 -0.000532522 -0.00026513 2.88284e-06 -1.78154e-05 2.37488e-05 7.09998e-07 -7.84028e-05
2.95067e-05 7.79039e-07 -0.00029814 4.17435e-05 1.50749e-06 -0.000476017 -3.34039e-05 2.30701e-06 -0.000529956 -0.000194016
2.74681e-06 -0.000561382 -0.000316002 2.96987e-06 -0.000592233 -0.000348519 3.02125e-06 -0.000601765 -0.000357554 3.03474e-06
-0.000619739 -0.000401995 3.08516e-06 -5.64785e-05 2.67719e-05 7.26829e-07 0 0 0 -0.000353995
3.20606e-05 1.69041e-06 -0.000532364 -0.000265082 2.85843e-06 1.31245e-15 0 21.434 -0.000561464 -0.000315927
2.93737e-06 -0.000528477 -0.000187238 2.64523e-06 -3.6444e-05 2.49408e-05 6.90251e-07 -0.000592455 -0.000348466 2.97998e-06
-0.000601732 -0.000357316 2.99232e-06 -0.000412908 7.60766e-06 1.9078e-06 -0.00061847 -0.000400919 3.03882e-06 0
0 0 -0.000164876 3.87813e-05 9.5382e-07 -0.000131615 3.57609e-05 8.56959e-07 -0.000203556 4.14279e-05
1.07125e-06 -0.000532201 -0.000265011 2.76704e-06 -0.000103068 3.22204e-05 7.78927e-07 -0.000248089 4.33396e-05 1.20849e-06
-1.77989e-05 2.37609e-05 6.68176e-07 -0.000561065 -0.00031583 2.85038e-06 -0.000529629 -0.000193881 2.5513e-06 -0.000475747
-3.33395e-05 2.17232e-06 -0.000591894 -0.000348316 2.90019e-06 -7.8342e-05 2.95134e-05 7.16685e-07 -0.000601418 -0.000357345
2.91373e-06 -0.000297962 4.17473e-05 1.3636e-06 -0.000619366 -0.000401753 2.96392e-06 0 0 0
-0.000532034 -0.000264903 2.66087e-06 -5.64345e-05 2.6779e-05 6.69332e-07 -0.000353795 3.20845e-05 1.5343e-06 1.31245e-15
0 21.434 -0.000561111 -0.000315718 2.74761e-06 -0.000528158 -0.00018699 2.47336e-06 -0.000592074 -0.000348237