/*--------------------------------*- C++ -*----------------------------------*\
  =========                 |
  \\      /  F ield         | OpenFOAM: The Open Source CFD Toolbox
   \\    /   O peration     | Website:  https://openfoam.org
    \\  /    A nd           | Version:  10
     \\/     M anipulation  |
\*---------------------------------------------------------------------------*/
FoamFile
{
    format      ascii;
    class       volScalarField;
    location    "2000";
    object      k;
}
// * * * * * * * * * * * * * * * * * * * * * * * * * * * * * * * * * * * * * //

dimensions      [0 2 -2 0 0 0 0];

internalField   nonuniform List<scalar> 
55398
(
0.233672
0.210663
0.197992
0.22184
0.305059
0.599733
0.22737
0.205086
0.187038
0.1721
0.159633
0.152142
0.203573
0.643489
2.56665
4.81823
5.40534
5.74303
5.51994
5.51319
0.21698
0.197794
0.18172
0.168296
0.157652
0.152263
0.17545
0.29061
1.81066
5.34024
4.58309
3.16444
2.15003
1.316
0.96001
0.217036
0.197911
0.181893
0.168496
0.157815
0.151476
0.160749
0.196397
0.312578
0.616106
1.10581
0.560197
0.289878
0.248246
0.218535
0.192927
0.176659
0.165074
0.21719
0.198156
0.182176
0.168764
0.157873
0.150579
0.151812
0.176388
0.216063
0.238596
0.257317
0.231401
0.198719
0.164315
0.150895
0.140801
0.132796
0.124377
0.11777
0.111866
0.217347
0.198413
0.182481
0.169049
0.157975
0.149755
0.147095
0.15604
0.164841
0.167569
0.16753
0.157119
0.147977
0.138951
0.130057
0.123007
0.117165
0.111074
0.105925
0.101273
0.217495
0.198658
0.182776
0.169294
0.158157
0.149281
0.144078
0.145323
0.147338
0.147381
0.143485
0.137448
0.130956
0.123886
0.11759
0.112204
0.107452
0.10252
0.0981654
0.0940794
0.217631
0.198885
0.183056
0.169638
0.158319
0.149144
0.142598
0.139608
0.13771
0.135364
0.13121
0.126225
0.120928
0.115239
0.11015
0.105496
0.101279
0.0969938
0.093115
0.0894683
0.217653
0.199042
0.183315
0.169964
0.158602
0.149213
0.141787
0.136701
0.132709
0.128876
0.124412
0.119688
0.114755
0.109783
0.105211
0.101055
0.0971708
0.093319
0.0897383
0.0864131
0.217883
0.19929
0.18356
0.170176
0.158816
0.149296
0.141458
0.135308
0.130166
0.125417
0.120615
0.115869
0.111207
0.10662
0.102374
0.0984239
0.094722
0.0911046
0.0877279
0.0845246
0.217989
0.19947
0.183785
0.170421
0.159043
0.149423
0.141313
0.134598
0.128824
0.123567
0.118517
0.113666
0.109098
0.104674
0.100564
0.0967092
0.0931332
0.0896569
0.0864011
0.0832934
0.218086
0.199635
0.183994
0.170653
0.159267
0.149576
0.141309
0.134278
0.128157
0.122579
0.117329
0.112418
0.107842
0.103555
0.0994694
0.0957017
0.0921736
0.0887891
0.0856094
0.0825564
0.218176
0.199789
0.184188
0.170872
0.15949
0.149749
0.141382
0.134161
0.127829
0.122037
0.116661
0.111687
0.107084
0.1028
0.0987934
0.0950549
0.0915504
0.0882162
0.0850823
0.0820672
0.218261
0.199933
0.184371
0.17108
0.159746
0.149918
0.141488
0.134153
0.12767
0.12177
0.116282
0.111239
0.106629
0.102345
0.0983567
0.0946526
0.0911719
0.087875
0.084775
0.0817861
0.21834
0.200068
0.184543
0.171276
0.159909
0.150107
0.141627
0.134232
0.12765
0.121666
0.116113
0.111051
0.106397
0.102114
0.0981387
0.0944475
0.0909786
0.087702
0.0846207
0.081648
0.218415
0.200197
0.184705
0.171459
0.160074
0.15029
0.141785
0.134343
0.127707
0.121665
0.116104
0.111014
0.106345
0.102057
0.0980915
0.0943929
0.0909294
0.0876624
0.0845942
0.081634
0.218486
0.200319
0.18486
0.171633
0.16027
0.15046
0.141952
0.13449
0.127833
0.121768
0.11619
0.111086
0.106405
0.102108
0.0981341
0.0944374
0.0909705
0.0877038
0.0846342
0.081675
0.218533
0.200397
0.184953
0.171731
0.160359
0.150543
0.142018
0.134556
0.127874
0.121803
0.116212
0.111106
0.106417
0.102115
0.0981439
0.0944344
0.0909544
0.0876769
0.0845985
0.0816339
0.233567
0.209327
0.191475
0.190583
0.282722
0.400253
0.227365
0.205083
0.187038
0.171999
0.159677
0.151965
0.190852
0.512491
2.8938
5.01829
5.62247
5.51538
5.23578
4.73574
0.216957
0.197748
0.181734
0.168293
0.157655
0.152208
0.174173
0.289389
1.85978
4.83082
4.41077
3.143
1.33679
1.32535
0.801982
0.21704
0.197909
0.181895
0.168502
0.157836
0.151452
0.159829
0.194663
0.343349
0.452085
0.907491
0.336175
0.28009
0.243812
0.215934
0.191623
0.173645
0.159975
0.217196
0.198156
0.182179
0.168771
0.157877
0.150546
0.151305
0.174736
0.210746
0.23151
0.240279
0.229502
0.184132
0.165625
0.15083
0.140519
0.132375
0.123924
0.117023
0.110819
0.217353
0.198414
0.182483
0.169057
0.15798
0.149727
0.146855
0.15492
0.163628
0.166651
0.164273
0.157201
0.148356
0.1386
0.129666
0.122723
0.116865
0.110755
0.10546
0.100595
0.217501
0.198659
0.182779
0.169323
0.158145
0.149295
0.143947
0.14486
0.146621
0.146747
0.143036
0.13734
0.131016
0.123869
0.117658
0.1121
0.107273
0.102421
0.097924
0.0937237
0.217636
0.198885
0.183058
0.169641
0.158341
0.149105
0.142526
0.139386
0.137348
0.134993
0.13089
0.126083
0.120883
0.115202
0.110104
0.105399
0.101159
0.0969254
0.0929839
0.0892562
0.217702
0.199044
0.1833
0.169939
0.158607
0.149227
0.141771
0.136627
0.132553
0.128695
0.12423
0.119579
0.114681
0.109747
0.105205
0.100993
0.0971059
0.0932836
0.0896823
0.086285
0.217883
0.199291
0.183562
0.17018
0.158822
0.149313
0.141443
0.135292
0.130107
0.12534
0.120528
0.115803
0.111153
0.106592
0.102362
0.098387
0.0946823
0.0910813
0.0876903
0.0844516
0.217988
0.199471
0.183787
0.170425
0.159048
0.149455
0.141313
0.134601
0.128815
0.123535
0.11847
0.1136
0.109051
0.104653
0.100557
0.096697
0.0931052
0.0896439
0.0863826
0.0832543
0.218085
0.199636
0.183995
0.170657
0.159272
0.14958
0.141338
0.134306
0.128159
0.122567
0.117312
0.112391
0.107804
0.103564
0.0994499
0.095685
0.0921556
0.0887785
0.085597
0.0825319
0.218176
0.199789
0.18419
0.170875
0.159494
0.149754
0.141408
0.13419
0.127832
0.122038
0.116655
0.111671
0.10706
0.10279
0.0987959
0.0950475
0.091542
0.0882102
0.0850763
0.0820544
0.21826
0.199933
0.184372
0.171082
0.159748
0.149935
0.141514
0.13418
0.12768
0.121772
0.11628
0.111223
0.10662
0.102343
0.0983579
0.0946503
0.0911678
0.0878708
0.084772
0.0817799
0.218339
0.200069
0.184544
0.171277
0.159912
0.150126
0.141652
0.134257
0.127661
0.12167
0.116113
0.111048
0.106392
0.102113
0.0981392
0.0944458
0.0909754
0.0876979
0.084619
0.0816458
0.218414
0.200197
0.184706
0.17146
0.160083
0.150297
0.141802
0.134361
0.127716
0.121668
0.116106
0.111014
0.106341
0.102056
0.0980899
0.0943942
0.0909276
0.0876592
0.0845925
0.0816329
0.218485
0.200319
0.18486
0.171633
0.16027
0.150468
0.141962
0.134501
0.127839
0.12177
0.116191
0.111086
0.106401
0.102107
0.0981348
0.0944362
0.0909679
0.0876998
0.0846327
0.0816743
0.218533
0.200397
0.184953
0.171731
0.160357
0.150544
0.14202
0.13456
0.127877
0.121804
0.116212
0.111106
0.106414
0.102114
0.0981446
0.0944303
0.0909517
0.0876739
0.0845981
0.0816351
0.233669
0.208999
0.189356
0.177269
0.208408
0.317417
0.227371
0.205086
0.187059
0.171959
0.159636
0.151785
0.181163
0.418292
2.97495
5.12398
5.74666
5.43469
4.91034
4.32127
0.216956
0.197739
0.181729
0.168285
0.157651
0.152145
0.172496
0.275467
3.22355
4.71627
4.50648
3.26861
1.33815
1.25895
0.808654
0.217045
0.197908
0.181897
0.168499
0.157838
0.151441
0.159834
0.194132
0.312657
0.402
0.789479
0.311019
0.272635
0.240128
0.212733
0.190256
0.17323
0.159602
0.217201
0.198155
0.18218
0.168768
0.157872
0.150546
0.151459
0.174775
0.211635
0.232166
0.238022
0.22572
0.182258
0.164891
0.151357
0.140738
0.132086
0.123666
0.116741
0.110647
0.217357
0.198412
0.182485
0.169055
0.157976
0.149733
0.146938
0.155032
0.163991
0.166757
0.163902
0.157322
0.14791
0.138015
0.129697
0.122679
0.116606
0.11054
0.10526
0.100466
0.217505
0.198658
0.182781
0.169334
0.158136
0.149328
0.143996
0.144908
0.146785
0.146832
0.14301
0.137407
0.131166
0.123754
0.117613
0.112088
0.107125
0.102238
0.0977075
0.0936428
0.217641
0.198884
0.18306
0.169638
0.158345
0.149158
0.142513
0.13939
0.137402
0.135017
0.130892
0.126097
0.120907
0.115148
0.110047
0.10536
0.101052
0.0968046
0.0928601
0.0892147
0.217731
0.199053
0.183295
0.169919
0.158595
0.14923
0.14178
0.13663
0.13257
0.128701
0.124223
0.119546
0.114712
0.109713
0.105182
0.100971
0.097048
0.0932172
0.0896224
0.0862626
0.217884
0.19929
0.183563
0.170179
0.158819
0.149316
0.141448
0.135289
0.130107
0.125343
0.120525
0.115754
0.111146
0.106557
0.102337
0.0983696
0.094647
0.0910402
0.0876519
0.0844401
0.217989
0.19947
0.183789
0.170426
0.159046
0.149448
0.141326
0.134603
0.128815
0.123537
0.118464
0.113573
0.109057
0.104633
0.100543
0.0966921
0.0930856
0.0896206
0.0863626
0.0832502
0.218086
0.199635
0.183998
0.170657
0.15927
0.149588
0.141335
0.1343
0.128161
0.122569
0.117311
0.112386
0.10781
0.103531
0.0994322
0.0956737
0.0921412
0.0887615
0.0855831
0.082529
0.218176
0.199789
0.184192
0.170876
0.159493
0.14976
0.141405
0.134184
0.127832
0.122041
0.116654
0.111669
0.107063
0.102775
0.09877
0.0950341
0.0915339
0.0882003
0.0850691
0.0820539
0.218261
0.199933
0.184374
0.171084
0.159739
0.149945
0.141515
0.134177
0.127682
0.121773
0.116279
0.111232
0.106611
0.102353
0.0983373
0.0946394
0.0911638
0.0878646
0.0847681
0.0817803
0.21834
0.200068
0.184546
0.171279
0.159918
0.150123
0.141651
0.134254
0.127663
0.121671
0.116113
0.111048
0.106391
0.102111
0.0981373
0.0944428
0.0909751
0.087694
0.084617
0.0816465
0.218415
0.200196
0.184708
0.171461
0.16009
0.150293
0.141799
0.134358
0.127718
0.12167
0.116106
0.111014
0.106339
0.102055
0.098087
0.0943935
0.090929
0.0876567
0.0845913
0.0816333
0.218486
0.200318
0.184862
0.171634
0.160272
0.150467
0.141961
0.134499
0.12784
0.121771
0.116191
0.111086
0.106399
0.102106
0.0981325
0.0944357
0.0909685
0.0876965
0.0846313
0.0816746
0.218534
0.200397
0.184955
0.171731
0.160359
0.150544
0.14202
0.134559
0.127878
0.121805
0.116213
0.111106
0.106411
0.102112
0.0981465
0.094426
0.0909506
0.0876705
0.0845974
0.0816359
0.233711
0.209153
0.18885
0.17233
0.18881
0.280949
0.227369
0.205089
0.187069
0.171922
0.159395
0.151326
0.175024
0.371386
2.88224
5.01079
5.75986
5.62815
4.92553
4.14151
0.216955
0.197734
0.181723
0.168276
0.157644
0.152097
0.170726
0.264205
3.98425
4.49745
4.59112
3.45967
1.39249
1.27755
0.827969
0.217047
0.197908
0.181897
0.168497
0.157837
0.151426
0.159539
0.19312
0.296904
0.394119
0.833337
0.293417
0.261865
0.234209
0.209473
0.190544
0.174257
0.159943
0.217203
0.198155
0.182181
0.168767
0.157869
0.150541
0.151498
0.174719
0.21051
0.231285
0.236381
0.223392
0.181847
0.166034
0.152293
0.141182
0.132142
0.123918
0.116809
0.110599
0.217359
0.198412
0.182485
0.169054
0.157973
0.149734
0.14699
0.155106
0.164177
0.166883
0.16373
0.157339
0.147868
0.13849
0.130028
0.122778
0.116532
0.110615
0.105261
0.100413
0.217507
0.198658
0.182781
0.169341
0.158133
0.149347
0.144035
0.14496
0.146907
0.146935
0.143014
0.137435
0.130804
0.12351
0.117582
0.112069
0.107058
0.102251
0.0977406
0.0936214
0.217643
0.198885
0.183061
0.169637
0.158346
0.149187
0.142516
0.1394
0.137445
0.135057
0.130907
0.126128
0.120695
0.114967
0.109996
0.105315
0.100987
0.0968069
0.0928707
0.0892036
0.217748
0.199064
0.183296
0.169908
0.158585
0.14923
0.141782
0.136634
0.132584
0.128714
0.124229
0.119527
0.11467
0.109623
0.105166
0.100951
0.0970158
0.0932207
0.0896334
0.086259
0.217884
0.19929
0.183564
0.170178
0.158816
0.149317
0.14145
0.135288
0.130109
0.125347
0.120527
0.115732
0.111142
0.106519
0.102329
0.0983561
0.0946271
0.0910418
0.0876562
0.0844384
0.21799
0.19947
0.183791
0.170426
0.159044
0.149444
0.141331
0.134607
0.128817
0.12354
0.118463
0.113573
0.109038
0.104601
0.100537
0.0966874
0.0930759
0.0896221
0.0863648
0.0832505
0.218087
0.199635
0.183999
0.170658
0.159268
0.149591
0.141334
0.134296
0.128161
0.122571
0.117311
0.112385
0.107801
0.103483
0.0994513
0.0956754
0.0921358
0.088761
0.0855821
0.0825282
0.218177
0.199788
0.184193
0.170877
0.159492
0.149762
0.141404
0.13418
0.127831
0.122042
0.116655
0.111669
0.107058
0.102754
0.0987687
0.0950344
0.0915311
0.0882002
0.0850681
0.0820539
0.218261
0.199933
0.184376
0.171085
0.159734
0.149947
0.141516
0.134175
0.127683
0.121774
0.116279
0.111237
0.106604
0.102343
0.0983211
0.0946328
0.0911604
0.0878633
0.0847662
0.0817804
0.21834
0.200068
0.184547
0.17128
0.159922
0.150121
0.141649
0.134251
0.127663
0.121672
0.116113
0.111049
0.10639
0.102103
0.0981201
0.0944392
0.090975
0.0876934
0.0846149
0.0816466
0.218415
0.200196
0.184709
0.171462
0.160095
0.150292
0.141797
0.134355
0.127718
0.121671
0.116107
0.111014
0.106339
0.102051
0.098073
0.0943917
0.0909305
0.0876569
0.0845892
0.081633
0.218486
0.200318
0.184863
0.171635
0.160273
0.150466
0.14196
0.134497
0.12784
0.121772
0.116192
0.111087
0.106399
0.102103
0.0981216
0.0944355
0.0909702
0.0876961
0.0846292
0.0816743
0.218534
0.200397
0.184956
0.171732
0.160359
0.150543
0.142019
0.134558
0.127878
0.121806
0.116214
0.111107
0.106412
0.102112
0.0981423
0.0944237
0.0909506
0.0876689
0.0845951
0.0816357
0.233712
0.209381
0.189218
0.170982
0.181817
0.265436
0.227367
0.205092
0.187074
0.171898
0.159106
0.150658
0.169201
0.345458
2.83849
4.8317
5.67842
5.83319
5.09379
4.07401
0.216953
0.197731
0.18172
0.168268
0.157629
0.152033
0.168977
0.251477
4.47844
4.00007
4.55975
3.68161
1.4572
1.32296
0.85361
0.217048
0.197909
0.181897
0.168495
0.157835
0.151409
0.159069
0.190563
0.282297
0.382006
1.01129
0.287278
0.253574
0.227872
0.205559
0.189551
0.174716
0.160335
0.217205
0.198155
0.182181
0.168766
0.157868
0.150536
0.151433
0.174213
0.208541
0.228729
0.233507
0.221185
0.181345
0.16638
0.152897
0.141624
0.132311
0.124115
0.116916
0.110603
0.217361
0.198413
0.182486
0.169053
0.157972
0.149732
0.147004
0.155059
0.164154
0.166884
0.16364
0.157276
0.147783
0.138734
0.130316
0.122944
0.116544
0.110659
0.105279
0.100387
0.217508
0.198658
0.182782
0.169344
0.158133
0.149357
0.144059
0.144987
0.146972
0.147021
0.143041
0.13742
0.130609
0.123821
0.117687
0.112097
0.107026
0.102248
0.0977609
0.0936164
0.217644
0.198885
0.183061
0.169637
0.158347
0.149204
0.142525
0.139412
0.137476
0.1351
0.130933
0.126153
0.120629
0.115115
0.110027
0.105299
0.10094
0.0967905
0.092873
0.0891989
0.217757
0.199073
0.1833
0.169904
0.158578
0.149228
0.141783
0.136637
0.132594
0.128728
0.124242
0.119521
0.114666
0.10964
0.105165
0.100939
0.0969909
0.0932137
0.0896384
0.0862593
0.217884
0.19929
0.183564
0.170178
0.158814
0.149318
0.141451
0.135288
0.130111
0.125351
0.120531
0.11572
0.111142
0.106544
0.102336
0.0983498
0.0946116
0.0910372
0.0876578
0.0844382
0.21799
0.199469
0.183791
0.170427
0.159044
0.149442
0.141333
0.134609
0.128819
0.123543
0.118465
0.113573
0.10903
0.104605
0.100537
0.0966841
0.0930683
0.0896203
0.0863661
0.0832513
0.218087
0.199635
0.184
0.170659
0.159268
0.149593
0.141334
0.134294
0.12816
0.122572
0.117312
0.112385
0.107798
0.103471
0.0994598
0.0956794
0.0921336
0.08876
0.0855816
0.0825277
0.218177
0.199788
0.184194
0.170877
0.159492
0.149764
0.141404
0.134178
0.12783
0.122042
0.116655
0.111669
0.107057
0.10275
0.0987705
0.0950356
0.0915297
0.0881998
0.0850676
0.0820538
0.218262
0.199932
0.184376
0.171086
0.159731
0.149948
0.141517
0.134174
0.127683
0.121775
0.116279
0.111239
0.106603
0.102325
0.0983334
0.0946343
0.0911588
0.0878622
0.0847648
0.0817799
0.218341
0.200068
0.184548
0.171281
0.159925
0.15012
0.141647
0.13425
0.127663
0.121672
0.116113
0.111049
0.10639
0.1021
0.0981211
0.0944383
0.0909745
0.0876931
0.0846136
0.0816461
0.218416
0.200196
0.18471
0.171463
0.160098
0.150292
0.141795
0.134353
0.127717
0.121671
0.116107
0.111015
0.10634
0.102049
0.0980713
0.0943906
0.0909308
0.0876571
0.0845882
0.0816325
0.218487
0.200318
0.184864
0.171636
0.160274
0.150467
0.14196
0.134496
0.12784
0.121772
0.116192
0.111087
0.106401
0.102101
0.0981184
0.0944348
0.0909708
0.0876961
0.084628
0.0816736
0.218534
0.200397
0.184957
0.171733
0.16036
0.150544
0.142019
0.134557
0.127878
0.121806
0.116215
0.111107
0.106414
0.102116
0.098138
0.0944212
0.0909496
0.0876676
0.0845933
0.0816349
0.233707
0.209511
0.189839
0.17141
0.18026
0.264715
0.227366
0.205093
0.187078
0.17189
0.158888
0.15
0.165282
0.349647
2.89483
4.6505
5.49574
5.99468
5.29106
4.10185
0.216952
0.197728
0.181718
0.168264
0.157613
0.151956
0.167632
0.242843
5.08974
3.40729
4.32695
3.86637
1.53103
1.38236
0.884726
0.217049
0.197909
0.181897
0.168495
0.157832
0.151391
0.158585
0.187718
0.270133
0.366951
1.24596
0.293267
0.251083
0.223416
0.201786
0.187967
0.174687
0.160602
0.217205
0.198156
0.182181
0.168766
0.157867
0.15053
0.151316
0.173355
0.205859
0.225277
0.230342
0.218887
0.180671
0.166292
0.153181
0.141963
0.132515
0.124288
0.117036
0.110645
0.217361
0.198413
0.182486
0.169053
0.157972
0.149729
0.14699
0.154877
0.1639
0.166675
0.163524
0.157171
0.147654
0.138822
0.130522
0.123121
0.116614
0.110707
0.105307
0.100382
0.217509
0.198658
0.182782
0.169346
0.158134
0.149362
0.144071
0.144977
0.146969
0.147048
0.143075
0.137412
0.130499
0.123936
0.117787
0.112149
0.107023
0.102243
0.0977711
0.0936171
0.217645
0.198886
0.183062
0.169637
0.158348
0.149213
0.142533
0.13942
0.137493
0.135132
0.13097
0.126182
0.120605
0.115195
0.110076
0.105306
0.100911
0.0967681
0.092866
0.0891941
0.217763
0.199081
0.183305
0.169903
0.158574
0.149227
0.141783
0.136638
0.132601
0.12874
0.124259
0.119526
0.114662
0.109654
0.105173
0.100934
0.0969724
0.0932018
0.089637
0.0862593
0.217884
0.19929
0.183565
0.170178
0.158813
0.149317
0.141452
0.135287
0.130111
0.125354
0.120536
0.115714
0.11114
0.106559
0.102347
0.0983494
0.0946005
0.0910297
0.0876563
0.0844376
0.21799
0.199469
0.183791
0.170427
0.159043
0.149441
0.141334
0.13461
0.12882
0.123545
0.118467
0.113574
0.109027
0.104606
0.100538
0.0966824
0.0930623
0.0896168
0.0863658
0.0832517
0.218087
0.199634
0.184
0.170659
0.159268
0.149594
0.141335
0.134293
0.12816
0.122572
0.117313
0.112386
0.107797
0.103464
0.0994629
0.0956826
0.0921328
0.0887589
0.0855811
0.0825273
0.218177
0.199788
0.184194
0.170878
0.159493
0.149765
0.141405
0.134177
0.127829
0.122042
0.116656
0.11167
0.107056
0.102747
0.098772
0.0950368
0.0915289
0.0881992
0.0850673
0.0820537
0.218262
0.199932
0.184377
0.171086
0.15973
0.149948
0.141517
0.134174
0.127683
0.121776
0.11628
0.111241
0.106602
0.102315
0.0983385
0.0946372
0.0911588
0.0878614
0.0847637
0.0817793
0.218341
0.200068
0.184548
0.171282
0.159926
0.15012
0.141647
0.134248
0.127662
0.121672
0.116114
0.111049
0.10639
0.102097
0.0981235
0.0944388
0.0909743
0.0876927
0.0846129
0.0816456
0.218416
0.200196
0.184711
0.171464
0.160101
0.150293
0.141795
0.134352
0.127716
0.121671
0.116108
0.111015
0.106341
0.102046
0.0980724
0.0943907
0.0909309
0.0876572
0.0845878
0.0816321
0.218487
0.200318
0.184864
0.171637
0.160275
0.150467
0.14196
0.134496
0.127839
0.121772
0.116192
0.111087
0.106402
0.102098
0.0981188
0.0944347
0.0909709
0.0876961
0.0846274
0.081673
0.218534
0.200397
0.184957
0.171734
0.160361
0.150544
0.142019
0.134557
0.127878
0.121806
0.116215
0.111108
0.106415
0.10212
0.0981364
0.0944194
0.0909482
0.0876663
0.0845917
0.0816338
0.233706
0.209558
0.190341
0.172469
0.180972
0.269887
0.227366
0.205093
0.187079
0.171894
0.158782
0.149508
0.163341
0.372169
3.1131
4.56414
5.26653
6.10813
5.47027
4.19833
0.216951
0.197727
0.181717
0.168263
0.1576
0.151883
0.166864
0.240222
5.62768
2.9364
3.89354
3.90655
1.59788
1.4467
0.921413
0.217049
0.19791
0.181897
0.168494
0.15783
0.151372
0.1582
0.185634
0.261983
0.362908
1.45277
0.307079
0.254413
0.221967
0.199106
0.18647
0.174447
0.160767
0.217205
0.198156
0.182182
0.168766
0.157868
0.150525
0.151188
0.172421
0.203061
0.221432
0.226906
0.216563
0.179893
0.165989
0.153231
0.142179
0.132708
0.124449
0.117159
0.110712
0.217361
0.198413
0.182487
0.169053
0.157973
0.149727
0.146961
0.154606
0.163448
0.166231
0.163281
0.157016
0.147494
0.138808
0.130644
0.123278
0.116712
0.11077
0.105346
0.100393
0.217509
0.198658
0.182783
0.169348
0.158136
0.149365
0.144072
0.144929
0.146892
0.146994
0.143078
0.137413
0.130445
0.12398
0.117861
0.112203
0.107037
0.102245
0.0977778
0.0936206
0.217645
0.198886
0.183062
0.169638
0.15835
0.149219
0.142538
0.13942
0.137492
0.135143
0.131004
0.126208
0.120604
0.115246
0.110129
0.105329
0.1009
0.096749
0.0928544
0.0891876
0.217766
0.199086
0.18331
0.169904
0.158573
0.149226
0.141783
0.136638
0.132604
0.128746
0.124275
0.119539
0.114665
0.109665
0.105184
0.100935
0.0969603
0.0931895
0.0896315
0.0862577
0.217884
0.19929
0.183565
0.170178
0.158812
0.149317
0.141451
0.135287
0.130111
0.125355
0.120542
0.115713
0.11114
0.106569
0.102359
0.0983537
0.0945941
0.0910219
0.0876523
0.0844358
0.21799
0.199469
0.183792
0.170427
0.159043
0.14944
0.141334
0.13461
0.128821
0.123546
0.11847
0.113576
0.109025
0.104607
0.10054
0.0966822
0.093058
0.0896126
0.0863641
0.0832513
0.218087
0.199634
0.184
0.17066
0.159268
0.149595
0.141336
0.134293
0.128159
0.122571
0.117314
0.112387
0.107796
0.103461
0.0994653
0.0956853
0.0921328
0.0887579
0.0855804
0.0825269
0.218177
0.199788
0.184195
0.170878
0.159493
0.149766
0.141405
0.134177
0.127828
0.122042
0.116656
0.11167
0.107056
0.102746
0.098774
0.0950381
0.0915286
0.0881986
0.085067
0.0820536
0.218262
0.199932
0.184377
0.171087
0.15973
0.149948
0.141517
0.134173
0.127683
0.121776
0.11628
0.111242
0.106603
0.102309
0.0983411
0.09464
0.0911597
0.0878611
0.084763
0.0817787
0.218341
0.200068
0.184549
0.171282
0.159928
0.150121
0.141647
0.134248
0.127662
0.121672
0.116114
0.111049
0.10639
0.102094
0.0981263
0.0944403
0.0909746
0.0876926
0.0846124
0.0816451
0.218416
0.200197
0.184711
0.171465
0.160102
0.150293
0.141795
0.134351
0.127716
0.12167
0.116107
0.111015
0.106341
0.102043
0.098075
0.0943918
0.0909312
0.0876574
0.0845876
0.0816318
0.218487
0.200318
0.184865
0.171637
0.160276
0.150468
0.14196
0.134495
0.127839
0.121771
0.116192
0.111087
0.106403
0.102096
0.0981215
0.0944357
0.0909713
0.0876961
0.084627
0.0816726
0.218535
0.200397
0.184958
0.171734
0.160362
0.150544
0.142019
0.134556
0.127878
0.121806
0.116215
0.111108
0.106416
0.102123
0.0981385
0.0944193
0.0909474
0.0876652
0.0845904
0.0816326
0.233707
0.209572
0.190633
0.173502
0.182779
0.274936
0.227366
0.205093
0.187079
0.171905
0.158774
0.149236
0.162872
0.39798
3.50889
4.65856
5.06995
6.18988
5.61333
4.33719
0.21695
0.197725
0.181716
0.168263
0.157593
0.151826
0.166623
0.242322
5.91358
2.70125
3.33064
3.76313
1.63405
1.49976
0.960686
0.217049
0.19791
0.181897
0.168495
0.157829
0.151356
0.157956
0.184708
0.258867
0.366213
1.52858
0.320599
0.260671
0.22316
0.197979
0.18547
0.174236
0.160927
0.217205
0.198156
0.182182
0.168766
0.157868
0.150521
0.151082
0.171664
0.200862
0.217976
0.22343
0.214138
0.178973
0.16554
0.15312
0.142282
0.132873
0.124601
0.117284
0.110797
0.217361
0.198413
0.182487
0.169053
0.157974
0.149726
0.146928
0.154323
0.162906
0.165611
0.16287
0.156774
0.147297
0.138725
0.130688
0.123396
0.116817
0.110846
0.105397
0.100421
0.217509
0.198659
0.182783
0.169349
0.158138
0.149366
0.144069
0.144859
0.146759
0.146859
0.143022
0.137393
0.130415
0.124
0.117915
0.112253
0.107058
0.102252
0.0977844
0.0936262
0.217645
0.198886
0.183062
0.169638
0.158351
0.149222
0.142541
0.13941
0.137473
0.135128
0.131024
0.126228
0.12061
0.115284
0.110179
0.105362
0.100904
0.0967377
0.0928425
0.0891798
0.217768
0.19909
0.183314
0.169906
0.158573
0.149226
0.141782
0.136637
0.132603
0.128746
0.124286
0.119554
0.114673
0.109677
0.105197
0.100941
0.0969539
0.0931789
0.089624
0.0862539
0.217884
0.19929
0.183566
0.170178
0.158812
0.149317
0.141451
0.135286
0.13011
0.125353
0.120546
0.115713
0.11114
0.106577
0.102371
0.098361
0.0945921
0.0910156
0.0876471
0.0844328
0.21799
0.199469
0.183792
0.170428
0.159043
0.14944
0.141334
0.13461
0.128821
0.123545
0.118472
0.113579
0.109026
0.104608
0.100543
0.0966832
0.0930552
0.0896086
0.0863613
0.0832502
0.218087
0.199634
0.184
0.17066
0.159268
0.149596
0.141337
0.134293
0.128158
0.122571
0.117315
0.112388
0.107797
0.10346
0.0994669
0.0956877
0.0921332
0.088757
0.0855794
0.0825264
0.218177
0.199788
0.184195
0.170879
0.159493
0.149766
0.141406
0.134177
0.127827
0.122041
0.116656
0.11167
0.107056
0.102745
0.0987751
0.0950395
0.0915287
0.088198
0.0850664
0.0820534
0.218262
0.199932
0.184377
0.171087
0.15973
0.149947
0.141517
0.134173
0.127683
0.121776
0.11628
0.111243
0.106603
0.102306
0.0983416
0.0946418
0.0911608
0.0878613
0.0847626
0.0817782
0.218341
0.200068
0.184549
0.171283
0.159929
0.150122
0.141647
0.134247
0.127661
0.121672
0.116114
0.111049
0.106391
0.102093
0.0981275
0.0944417
0.0909752
0.0876926
0.0846122
0.0816448
0.218416
0.200197
0.184711
0.171465
0.160103
0.150294
0.141795
0.134351
0.127715
0.12167
0.116107
0.111015
0.106342
0.102042
0.098076
0.094393
0.0909318
0.0876576
0.0845875
0.0816316
0.218487
0.200318
0.184865
0.171638
0.160277
0.150468
0.14196
0.134495
0.127839
0.121771
0.116192
0.111087
0.106403
0.102095
0.0981226
0.0944369
0.090972
0.0876963
0.0846268
0.0816722
0.218535
0.200397
0.184958
0.171735
0.160362
0.150545
0.142019
0.134556
0.127877
0.121806
0.116215
0.111108
0.106417
0.102126
0.0981408
0.0944202
0.0909473
0.0876645
0.0845893
0.0816315
0.233707
0.209577
0.190769
0.174241
0.184812
0.278602
0.227366
0.205093
0.187079
0.171917
0.158827
0.149164
0.163309
0.41966
4.00092
4.95989
4.99678
6.26646
5.71781
4.49956
0.21695
0.197724
0.181715
0.168264
0.157591
0.15179
0.166762
0.246818
5.79014
2.69492
2.82584
3.40479
1.6185
1.52273
0.996219
0.217049
0.19791
0.181897
0.168495
0.157828
0.151343
0.15785
0.184786
0.260022
0.373334
1.50685
0.328748
0.266621
0.225731
0.198197
0.185048
0.174138
0.161132
0.217205
0.198156
0.182182
0.168766
0.157869
0.150518
0.15101
0.171214
0.19964
0.215592
0.220493
0.211727
0.177911
0.164952
0.152875
0.142282
0.132993
0.124742
0.117411
0.110896
0.217361
0.198413
0.182487
0.169053
0.157974
0.149726
0.1469
0.154093
0.162404
0.164942
0.162336
0.156431
0.147048
0.138581
0.130664
0.123466
0.116911
0.110927
0.105459
0.100462
0.217509
0.198659
0.182783
0.169349
0.158139
0.149368
0.144063
0.144784
0.146601
0.14667
0.142904
0.137332
0.130375
0.124004
0.117958
0.112299
0.107084
0.102264
0.0977918
0.0936335
0.217645
0.198886
0.183063
0.169638
0.158352
0.149225
0.142543
0.139395
0.137441
0.13509
0.131019
0.126234
0.120611
0.115309
0.110225
0.105402
0.10092
0.0967356
0.0928337
0.0891723
0.217769
0.199092
0.183317
0.169908
0.158574
0.149227
0.141782
0.136633
0.132599
0.128739
0.124289
0.119564
0.114682
0.109688
0.105212
0.100951
0.0969534
0.0931715
0.089616
0.0862485
0.217884
0.19929
0.183566
0.170178
0.158812
0.149317
0.141451
0.135285
0.130109
0.12535
0.120547
0.115714
0.11114
0.106582
0.102382
0.0983705
0.0945938
0.0910116
0.0876417
0.0844289
0.21799
0.199469
0.183792
0.170428
0.159044
0.14944
0.141334
0.13461
0.128821
0.123544
0.118472
0.113581
0.109027
0.10461
0.100546
0.0966854
0.093054
0.0896052
0.086358
0.0832482
0.218087
0.199634
0.184
0.17066
0.159268
0.149596
0.141337
0.134293
0.128158
0.122569
0.117315
0.112389
0.107797
0.10346
0.0994684
0.0956901
0.0921343
0.0887565
0.0855783
0.0825256
0.218177
0.199788
0.184195
0.170879
0.159493
0.149767
0.141406
0.134177
0.127827
0.12204
0.116656
0.111671
0.107056
0.102745
0.0987759
0.0950408
0.0915291
0.0881975
0.0850657
0.082053
0.218262
0.199932
0.184377
0.171088
0.15973
0.149947
0.141517
0.134173
0.127683
0.121775
0.11628
0.111244
0.106604
0.102304
0.0983414
0.094643
0.0911619
0.0878616
0.0847624
0.0817778
0.218341
0.200068
0.184549
0.171283
0.159929
0.150122
0.141647
0.134247
0.127661
0.121671
0.116113
0.111049
0.106391
0.102092
0.098128
0.0944427
0.0909759
0.0876928
0.0846121
0.0816446
0.218416
0.200197
0.184711
0.171465
0.160104
0.150295
0.141796
0.134351
0.127715
0.121669
0.116107
0.111015
0.106342
0.102041
0.0980764
0.0943939
0.0909325
0.0876579
0.0845875
0.0816314
0.218487
0.200318
0.184865
0.171638
0.160277
0.150469
0.141961
0.134495
0.127839
0.121771
0.116192
0.111087
0.106403
0.102094
0.0981231
0.0944378
0.0909727
0.0876966
0.0846267
0.0816719
0.218535
0.200397
0.184958
0.171735
0.160362
0.150545
0.142019
0.134556
0.127877
0.121806
0.116215
0.111108
0.106417
0.102127
0.0981426
0.0944215
0.0909477
0.0876642
0.0845885
0.0816305
0.233707
0.209578
0.190824
0.174676
0.18635
0.281584
0.227366
0.205093
0.187079
0.171928
0.158907
0.149238
0.164154
0.435807
4.54193
5.48843
5.14531
6.35324
5.78232
4.6762
0.216949
0.197724
0.181714
0.168265
0.157594
0.151779
0.167117
0.251858
5.22189
2.87085
2.49661
2.92505
1.54432
1.50298
1.02116
0.217049
0.19791
0.181897
0.168495
0.157829
0.151336
0.157853
0.185509
0.263696
0.382262
1.47508
0.331992
0.270739
0.22845
0.199216
0.184999
0.174072
0.161354
0.217205
0.198156
0.182183
0.168767
0.157869
0.150516
0.150973
0.171076
0.199402
0.214562
0.218598
0.209631
0.17679
0.164239
0.152494
0.142174
0.13305
0.124862
0.117537
0.111005
0.217361
0.198413
0.182487
0.169053
0.157975
0.149726
0.146879
0.153948
0.162035
0.164361
0.161777
0.15602
0.14675
0.13838
0.130583
0.123484
0.116982
0.111005
0.105526
0.100514
0.217509
0.198659
0.182783
0.16935
0.15814
0.149369
0.144058
0.144722
0.146451
0.146467
0.142743
0.137226
0.130308
0.123984
0.117989
0.112343
0.107115
0.10228
0.0978002
0.0936421
0.217645
0.198886
0.183063
0.169639
0.158352
0.149227
0.142543
0.139379
0.137402
0.135037
0.130991
0.126226
0.120603
0.11532
0.110262
0.105443
0.100945
0.0967429
0.0928298
0.0891665
0.217769
0.199094
0.183319
0.16991
0.158575
0.149228
0.141783
0.13663
0.132592
0.128728
0.124285
0.119569
0.114689
0.109698
0.105227
0.100965
0.0969582
0.093168
0.0896088
0.0862425
0.217884
0.19929
0.183566
0.170179
0.158813
0.149317
0.141451
0.135284
0.130108
0.125345
0.120546
0.115714
0.111139
0.106585
0.102392
0.0983812
0.0945989
0.0910103
0.0876371
0.0844246
0.21799
0.199469
0.183792
0.170428
0.159044
0.14944
0.141334
0.13461
0.12882
0.123542
0.118471
0.113582
0.109027
0.104612
0.10055
0.0966887
0.0930545
0.0896029
0.0863545
0.0832457
0.218087
0.199634
0.184
0.17066
0.159269
0.149596
0.141337
0.134294
0.128158
0.122568
0.117314
0.112389
0.107798
0.10346
0.09947
0.0956927
0.092136
0.0887565
0.0855771
0.0825246
0.218177
0.199788
0.184195
0.170879
0.159494
0.149767
0.141407
0.134177
0.127827
0.122039
0.116656
0.111671
0.107056
0.102745
0.0987766
0.095042
0.0915298
0.0881973
0.0850649
0.0820525
0.218262
0.199932
0.184377
0.171088
0.15973
0.149948
0.141517
0.134173
0.127683
0.121775
0.11628
0.111245
0.106604
0.102303
0.0983412
0.0946437
0.0911628
0.087862
0.0847623
0.0817775
0.218341