/*--------------------------------*- C++ -*----------------------------------*\
  =========                 |
  \\      /  F ield         | OpenFOAM: The Open Source CFD Toolbox
   \\    /   O peration     | Website:  https://openfoam.org
    \\  /    A nd           | Version:  10
     \\/     M anipulation  |
\*---------------------------------------------------------------------------*/
FoamFile
{
    format      ascii;
    class       volScalarField;
    location    "2000";
    object      nut;
}
// * * * * * * * * * * * * * * * * * * * * * * * * * * * * * * * * * * * * * //

dimensions      [0 2 -1 0 0 0 0];

internalField   nonuniform List<scalar> 
55398
(
0.133888
0.118439
0.0956007
0.0603724
0.0573822
0.0616339
0.134468
0.133585
0.132926
0.131907
0.127775
0.120033
0.097963
0.103774
0.326005
0.735102
0.959883
0.875347
0.964075
1.11381
0.134003
0.133239
0.132675
0.132334
0.132458
0.132584
0.12617
0.120745
0.21045
0.747358
0.73338
0.758176
0.667437
0.530908
0.469448
0.133953
0.133175
0.132562
0.132196
0.132364
0.1337
0.134754
0.133033
0.103224
0.0511567
0.132202
0.136307
0.13287
0.133746
0.1343
0.135465
0.137084
0.138975
0.133924
0.133118
0.13246
0.132025
0.132023
0.133204
0.135958
0.141028
0.138504
0.125779
0.115604
0.121917
0.129666
0.136354
0.137506
0.138222
0.138771
0.139198
0.139234
0.139014
0.133907
0.133083
0.132391
0.131887
0.131724
0.132416
0.134884
0.139403
0.142507
0.142455
0.143448
0.144467
0.144128
0.143581
0.142924
0.142525
0.1423
0.141713
0.141211
0.140665
0.133897
0.13306
0.132342
0.131784
0.131495
0.131801
0.133277
0.136765
0.139614
0.141274
0.142222
0.142216
0.141822
0.140996
0.140216
0.139692
0.139312
0.138598
0.138028
0.137431
0.13389
0.133043
0.132307
0.131711
0.13133
0.131349
0.132145
0.134219
0.136231
0.137686
0.138301
0.138347
0.138039
0.137332
0.136698
0.136179
0.135783
0.135129
0.134606
0.134069
0.13388
0.133029
0.13228
0.131657
0.131209
0.131039
0.13137
0.132443
0.133617
0.134521
0.134861
0.134824
0.134488
0.133916
0.133399
0.132995
0.132645
0.132126
0.131683
0.131255
0.133882
0.133022
0.132261
0.131614
0.131117
0.130834
0.130872
0.131353
0.131933
0.132329
0.132405
0.132269
0.13197
0.13153
0.13112
0.130772
0.130458
0.130028
0.129653
0.129266
0.133879
0.133015
0.132246
0.131581
0.131049
0.130689
0.13055
0.130675
0.130866
0.130938
0.130821
0.13059
0.130283
0.129887
0.129519
0.12919
0.128905
0.128537
0.128211
0.12786
0.133877
0.13301
0.132234
0.131556
0.130997
0.130584
0.130336
0.13025
0.130205
0.130083
0.129837
0.129519
0.129185
0.128839
0.12849
0.128183
0.127909
0.127581
0.127285
0.126951
0.133876
0.133006
0.132224
0.131537
0.130958
0.130505
0.130185
0.129975
0.12979
0.129539
0.129207
0.128841
0.12848
0.128131
0.127796
0.127491
0.127215
0.126907
0.126629
0.126308
0.133875
0.133003
0.132217
0.131522
0.130931
0.130447
0.130078
0.12979
0.129518
0.129192
0.128789
0.128383
0.128002
0.127648
0.127319
0.127019
0.126746
0.126455
0.12619
0.125879
0.133874
0.133001
0.132212
0.131511
0.130907
0.130406
0.130001
0.129672
0.12934
0.128966
0.128523
0.128093
0.127697
0.127338
0.127012
0.126713
0.126438
0.126156
0.125898
0.125594
0.133874
0.133
0.132208
0.131503
0.13089
0.130375
0.129949
0.129586
0.129223
0.128816
0.128371
0.127929
0.127524
0.127161
0.126835
0.126534
0.126259
0.12598
0.125728
0.125431
0.133875
0.133
0.132206
0.131497
0.130878
0.130354
0.129915
0.129533
0.129157
0.128738
0.128283
0.127837
0.127426
0.127059
0.126729
0.126426
0.126148
0.125868
0.125613
0.125316
0.133868
0.132986
0.132183
0.131463
0.130831
0.130292
0.129834
0.129441
0.129045
0.128619
0.128152
0.127702
0.127286
0.126913
0.126577
0.126265
0.125975
0.125686
0.125422
0.125118
0.134229
0.123456
0.109171
0.069877
0.0479286
0.0535498
0.134469
0.133585
0.132947
0.132154
0.128679
0.121491
0.0993119
0.0841791
0.477151
0.819898
0.99169
0.942762
0.966255
0.961787
0.134001
0.133236
0.132675
0.132338
0.132485
0.132948
0.127701
0.123823
0.165896
0.726139
0.808545
0.761679
0.516505
0.536826
0.431269
0.133952
0.133175
0.132561
0.132192
0.132361
0.133739
0.135405
0.134104
0.0932287
0.061167
0.109638
0.12247
0.128937
0.132372
0.134049
0.136372
0.137695
0.139173
0.133924
0.133118
0.132459
0.13202
0.132014
0.133174
0.136011
0.141306
0.138535
0.126767
0.119312
0.121249
0.133118
0.135596
0.137204
0.138086
0.138725
0.139189
0.139294
0.139119
0.133907
0.133083
0.13239
0.131884
0.131718
0.132377
0.13481
0.13924
0.142409
0.142393
0.143884
0.144572
0.144289
0.143561
0.14283
0.142406
0.142156
0.141559
0.141001
0.140364
0.133897
0.13306
0.132341
0.131783
0.13149
0.131773
0.133185
0.136602
0.13943
0.141171
0.142179
0.142243
0.14188
0.141007
0.140241
0.139622
0.139197
0.138521
0.137867
0.137176
0.13389
0.133043
0.132306
0.13171
0.131327
0.131335
0.132062
0.134078
0.136063
0.137543
0.138187
0.138296
0.13802
0.137301
0.136667
0.136112
0.135694
0.135077
0.134493
0.133882
0.133882
0.133029
0.132279
0.131655
0.131207
0.131036
0.131354
0.132372
0.133512
0.134416
0.134759
0.134758
0.134442
0.133892
0.13339
0.132951
0.132594
0.132098
0.131621
0.131131
0.133882
0.133022
0.132261
0.131613
0.131116
0.130832
0.130868
0.131314
0.131863
0.132266
0.132343
0.132221
0.131934
0.131509
0.131111
0.130744
0.130425
0.13001
0.129613
0.129188
0.133879
0.133015
0.132246
0.131581
0.131048
0.130688
0.130549
0.130656
0.130828
0.130904
0.130786
0.130541
0.130246
0.129871
0.129514
0.129178
0.128885
0.128529
0.128191
0.127816
0.133877
0.13301
0.132233
0.131556
0.130997
0.130582
0.130332
0.13024
0.130191
0.130064
0.129818
0.129496
0.129165
0.128834
0.12848
0.128173
0.127896
0.127575
0.127272
0.126924
0.133876
0.133006
0.132224
0.131536
0.130958
0.130504
0.130182
0.12997
0.129783
0.129529
0.129196
0.128826
0.128467
0.128127
0.127795
0.127487
0.127208
0.126905
0.126622
0.126293
0.133875
0.133003
0.132217
0.131522
0.13093
0.130448
0.130077
0.129788
0.129514
0.129187
0.128783
0.128375
0.127999
0.127647
0.127318
0.127018
0.126742
0.126453
0.126186
0.125871
0.133874
0.133001
0.132212
0.131511
0.130907
0.130406
0.130001
0.129671
0.129338
0.128963
0.12852
0.128091
0.127695
0.127337
0.127011
0.126712
0.126437
0.126155
0.125896
0.12559
0.133874
0.133
0.132208
0.131503
0.13089
0.130375
0.129949
0.129585
0.129222
0.128815
0.12837
0.127928
0.127523
0.12716
0.126834
0.126534
0.126258
0.12598
0.125727
0.125429
0.133875
0.133
0.132206
0.131497
0.130878
0.130354
0.129915
0.129533
0.129157
0.128737
0.128283
0.127836
0.127425
0.127058
0.126728
0.126426
0.126147
0.125867
0.125612
0.125315
0.133868
0.132986
0.132183
0.131463
0.130831
0.130292
0.129834
0.129441
0.129045
0.128619
0.128152
0.127702
0.127285
0.126912
0.126577
0.126264
0.125975
0.125685
0.125421
0.125118
0.134431
0.127237
0.113851
0.0849479
0.046449
0.0509736
0.13447
0.133588
0.132955
0.132024
0.128003
0.121595
0.0994269
0.0875102
0.531089
0.878802
0.993846
0.869173
0.996301
0.968189
0.134001
0.133236
0.132674
0.132335
0.132473
0.133048
0.127766
0.123882
0.155226
0.701704
0.810704
0.785872
0.522341
0.522573
0.437798
0.133952
0.133175
0.132561
0.132192
0.13236
0.133742
0.135221
0.134808
0.0886389
0.0849583
0.0963948
0.116375
0.123878
0.1294
0.132668
0.136303
0.138295
0.139487
0.133924
0.133118
0.132459
0.13202
0.132016
0.133162
0.135978
0.141542
0.139584
0.127577
0.119084
0.121964
0.133008
0.135285
0.136731
0.137758
0.138565
0.139082
0.139246
0.139105
0.133908
0.133083
0.13239
0.131884
0.131719
0.132365
0.134825
0.139307
0.142351
0.142194
0.143567
0.144463
0.144259
0.143511
0.142841
0.142362
0.142026
0.141434
0.140887
0.140289
0.133897
0.13306
0.132341
0.131784
0.131491
0.131764
0.133218
0.136626
0.139444
0.141128
0.142127
0.142274
0.141936
0.140986
0.140236
0.139611
0.139099
0.138392
0.137716
0.13711
0.13389
0.133043
0.132306
0.13171
0.131327
0.131332
0.132082
0.134088
0.136081
0.137538
0.138181
0.138312
0.138041
0.137267
0.136632
0.136084
0.135611
0.13498
0.134386
0.133841
0.133884
0.133029
0.132279
0.131654
0.131206
0.131037
0.13135
0.132377
0.133529
0.134418
0.134755
0.134748
0.13446
0.133868
0.133373
0.132936
0.132543
0.13204
0.131559
0.131106
0.133882
0.133022
0.132261
0.131613
0.131116
0.130833
0.130867
0.131317
0.131868
0.132266
0.132341
0.132193
0.131924
0.131482
0.131092
0.13073
0.130393
0.129973
0.129575
0.129173
0.133879
0.133015
0.132246
0.131581
0.131048
0.130688
0.130548
0.130658
0.13083
0.130904
0.130785
0.130527
0.130248
0.129856
0.129504
0.129174
0.128867
0.128509
0.12817
0.127809
0.133877
0.13301
0.132234
0.131556
0.130997
0.130582
0.130332
0.130241
0.130192
0.130064
0.129816
0.129491
0.129171
0.128815
0.128465
0.128165
0.127882
0.127561
0.127259
0.126919
0.133876
0.133006
0.132224
0.131537
0.130958
0.130504
0.130183
0.12997
0.129783
0.129529
0.129195
0.128823
0.128471
0.128116
0.127783
0.127481
0.127201
0.126897
0.126615
0.12629
0.133875
0.133003
0.132217
0.131522
0.13093
0.130448
0.130077
0.129788
0.129514
0.129187
0.128783
0.128374
0.127998
0.127647
0.127315
0.127015
0.126739
0.126449
0.126182
0.12587
0.133874
0.133001
0.132212
0.131511
0.130907
0.130406
0.130001
0.129671
0.129338
0.128963
0.12852
0.12809
0.127695
0.127337
0.12701
0.126711
0.126435
0.126152
0.125894
0.12559
0.133874
0.133
0.132208
0.131503
0.13089
0.130375
0.129949
0.129585
0.129222
0.128815
0.12837
0.127928
0.127523
0.12716
0.126834
0.126534
0.126258
0.125979
0.125725
0.125428
0.133875
0.133
0.132206
0.131497
0.130878
0.130354
0.129915
0.129533
0.129157
0.128737
0.128283
0.127836
0.127425
0.127058
0.126728
0.126425
0.126146
0.125866
0.125611
0.125315
0.133868
0.132986
0.132183
0.131463
0.130831
0.130292
0.129834
0.129441
0.129045
0.128619
0.128152
0.127702
0.127285
0.126912
0.126577
0.126264
0.125975
0.125685
0.125421
0.125118
0.134476
0.130186
0.117847
0.0943609
0.0468658
0.0494887
0.13447
0.133592
0.132963
0.131985
0.127188
0.121117
0.098026
0.0806456
0.547799
0.90675
1.05383
0.91184
1.04375
0.924784
0.134001
0.133236
0.132673
0.132331
0.132453
0.133079
0.127602
0.120752
0.144311
0.648293
0.793102
0.816455
0.537489
0.5302
0.448473
0.133952
0.133175
0.132561
0.132193
0.132359
0.133743
0.135088
0.13438
0.0838496
0.0823031
0.100505
0.112125
0.119417
0.125883
0.130458
0.135344
0.138486
0.139794
0.133924
0.133118
0.132459
0.13202
0.132016
0.133155
0.135934
0.141799
0.141591
0.13026
0.121174
0.123011
0.132763
0.134644
0.136168
0.137337
0.138269
0.138837
0.139105
0.139039
0.133908
0.133083
0.13239
0.131884
0.13172
0.132356
0.134826
0.139395
0.142501
0.142276
0.14344
0.144325
0.144213
0.143595
0.142911
0.142365
0.141958
0.141411
0.140848
0.140239
0.133897
0.13306
0.132341
0.131784
0.131492
0.131757
0.133238
0.13666
0.139485
0.141132
0.142088
0.142261
0.141796
0.1409
0.140234
0.139604
0.139052
0.138394
0.137723
0.137084
0.13389
0.133043
0.132306
0.13171
0.131327
0.131329
0.132093
0.134102
0.136101
0.137546
0.138178
0.138329
0.13793
0.137181
0.136604
0.136055
0.135561
0.13498
0.134394
0.133828
0.133884
0.13303
0.132279
0.131654
0.131206
0.131036
0.131349
0.132381
0.133541
0.134426
0.134759
0.134742
0.134421
0.133826
0.133363
0.132923
0.132516
0.132043
0.13157
0.1311
0.133882
0.133022
0.132261
0.131613
0.131116
0.130833
0.130866
0.131318
0.131873
0.13227
0.132342
0.132191
0.131914
0.131458
0.131083
0.130719
0.130374
0.129976
0.129582
0.12917
0.133879
0.133015
0.132246
0.131581
0.131048
0.130688
0.130548
0.130659
0.130833
0.130906
0.130786
0.130523
0.130236
0.129839
0.129499
0.129169
0.128858
0.128512
0.128175
0.127808
0.133877
0.13301
0.132234
0.131556
0.130997
0.130582
0.130332
0.130242
0.130193
0.130064
0.129816
0.129489
0.129164
0.128801
0.12847
0.128163
0.127875
0.127562
0.127261
0.126918
0.133876
0.133006
0.132224
0.131537
0.130958
0.130504
0.130183
0.129971
0.129783
0.129529
0.129195
0.128822
0.128466
0.128108
0.127785
0.12748
0.127197
0.126898
0.126616
0.12629
0.133875
0.133003
0.132217
0.131522
0.13093
0.130448
0.130078
0.129789
0.129515
0.129187
0.128783
0.128374
0.127995
0.127639
0.127309
0.127013
0.126736
0.126449
0.126183
0.12587
0.133874
0.133001
0.132212
0.131511
0.130907
0.130406
0.130001
0.129671
0.129338
0.128963
0.128519
0.12809
0.127694
0.127333
0.127007
0.12671
0.126434
0.126153
0.125894
0.12559
0.133874
0.133
0.132208
0.131503
0.13089
0.130375
0.129949
0.129585
0.129222
0.128815
0.12837
0.127928
0.127522
0.127158
0.126831
0.126533
0.126257
0.125979
0.125725
0.125428
0.133875
0.133
0.132206
0.131497
0.130878
0.130354
0.129915
0.129533
0.129157
0.128737
0.128283
0.127836
0.127425
0.127057
0.126726
0.126425
0.126146
0.125866
0.125611
0.125315
0.133868
0.132986
0.132183
0.131463
0.130831
0.130292
0.129834
0.129441
0.129046
0.12862
0.128152
0.127702
0.127285
0.126912
0.126577
0.126264
0.125975
0.125685
0.125421
0.125118
0.134483
0.13163
0.121924
0.101432
0.0482396
0.0486393
0.134469
0.133595
0.132971
0.132041
0.126855
0.120633
0.0969231
0.0802205
0.571411
0.923774
1.11048
0.954113
1.07179
0.905156
0.134
0.133237
0.132673
0.132327
0.132431
0.133068
0.12724
0.117794
0.157678
0.563868
0.772744
0.844302
0.554333
0.544238
0.460906
0.133952
0.133175
0.132561
0.132192
0.132356
0.133741
0.134955
0.133579
0.0791975
0.0830443
0.113935
0.111117
0.116614
0.12275
0.127946
0.133906
0.138162
0.139897
0.133924
0.133118
0.132459
0.132021
0.132017
0.13315
0.135886
0.141842
0.14274
0.13295
0.124275
0.124745
0.132906
0.134411
0.135801
0.136957
0.137935
0.138561
0.138917
0.138929
0.133908
0.133083
0.13239
0.131884
0.131721
0.13235
0.134816
0.139445
0.142736
0.142604
0.143563
0.144298
0.14416
0.143633
0.142976
0.142395
0.141925
0.141384
0.140816
0.140197
0.133897
0.13306
0.132341
0.131784
0.131492
0.131753
0.133245
0.136688
0.139548
0.141194
0.142096
0.142236
0.141731
0.141008
0.140278
0.139618
0.139027
0.138385
0.137726
0.13707
0.13389
0.133043
0.132306
0.13171
0.131327
0.131327
0.132099
0.134116
0.136121
0.137565
0.138185
0.13834
0.137902
0.137264
0.136622
0.136045
0.135525
0.134965
0.134395
0.133821
0.133885
0.13303
0.13228
0.131654
0.131205
0.131035
0.131348
0.132383
0.13355
0.134435
0.134767
0.134741
0.134408
0.133842
0.133364
0.132915
0.132496
0.132038
0.131575
0.131099
0.133882
0.133022
0.132261
0.131613
0.131116
0.130833
0.130865
0.131319
0.131876
0.132274
0.132346
0.13219
0.131914
0.131475
0.131085
0.130712
0.130359
0.129971
0.129585
0.129169
0.133879
0.133015
0.132246
0.131581
0.131048
0.130688
0.130548
0.13066
0.130836
0.130908
0.130787
0.13052
0.130232
0.129845
0.129498
0.129165
0.12885
0.12851
0.128178
0.127809
0.133877
0.13301
0.132234
0.131556
0.130997
0.130582
0.130332
0.130242
0.130193
0.130065
0.129816
0.129488
0.129162
0.128802
0.128473
0.128162
0.12787
0.12756
0.127262
0.126918
0.133876
0.133006
0.132224
0.131537
0.130958
0.130504
0.130183
0.129971
0.129784
0.12953
0.129195
0.128821
0.128464
0.128108
0.127786
0.12748
0.127195
0.126897
0.126617
0.12629
0.133875
0.133003
0.132217
0.131522
0.13093
0.130448
0.130077
0.129789
0.129515
0.129188
0.128783
0.128374
0.127993
0.127637
0.127312
0.127013
0.126735
0.126449
0.126183
0.12587
0.133874
0.133001
0.132212
0.131511
0.130908
0.130406
0.130001
0.129671
0.129338
0.128963
0.128519
0.12809
0.127693
0.127332
0.127008
0.12671
0.126433
0.126152
0.125894
0.12559
0.133874
0.133
0.132208
0.131503
0.130891
0.130375
0.129949
0.129585
0.129222
0.128815
0.12837
0.127928
0.127522
0.127158
0.126831
0.126533
0.126257
0.125979
0.125725
0.125428
0.133875
0.133
0.132206
0.131497
0.130878
0.130354
0.129915
0.129533
0.129157
0.128737
0.128283
0.127836
0.127425
0.127056
0.126726
0.126425
0.126145
0.125865
0.125611
0.125314
0.133868
0.132986
0.132183
0.131463
0.130831
0.130292
0.129834
0.129441
0.129046
0.12862
0.128153
0.127702
0.127285
0.126913
0.126577
0.126264
0.125975
0.125685
0.125421
0.125118
0.134483
0.132151
0.124986
0.106846
0.0496526
0.0489826
0.134469
0.133596
0.132977
0.132127
0.126972
0.120426
0.0963053
0.0842631
0.607359
0.934609
1.13019
1.00982
1.10493
0.905556
0.134
0.133237
0.132673
0.132326
0.132413
0.133041
0.126807
0.114474
0.188153
0.479508
0.749807
0.854597
0.571843
0.560944
0.474655
0.133952
0.133175
0.132561
0.132192
0.132353
0.133737
0.134804
0.132504
0.0756617
0.0836374
0.129723
0.113454
0.116131
0.120798
0.125698
0.132334
0.137502
0.139752
0.133924
0.133118
0.132459
0.132021
0.132017
0.133147
0.135833
0.141626
0.142675
0.134453
0.126838
0.127025
0.133564
0.134594
0.135711
0.136722
0.137646
0.138286
0.138702
0.138785
0.133908
0.133083
0.13239
0.131884
0.131721
0.132346
0.1348
0.139418
0.142886
0.142974
0.143848
0.144409
0.14416
0.143662
0.143038
0.142443
0.141922
0.141365
0.14079
0.140163
0.133897
0.13306
0.132341
0.131784
0.131493
0.13175
0.133246
0.136698
0.139603
0.141284
0.142149
0.142238
0.141696
0.141046
0.140318
0.139641
0.139019
0.138375
0.137723
0.137061
0.13389
0.133043
0.132307
0.13171
0.131328
0.131325
0.132101
0.134124
0.136141
0.137591
0.138206
0.138355
0.137895
0.137307
0.136651
0.136049
0.135503
0.134946
0.134388
0.133814
0.133885
0.133031
0.13228
0.131654
0.131206
0.131035
0.131347
0.132385
0.133557
0.134444
0.134778
0.134747
0.134401
0.13385
0.133369
0.132912
0.132482
0.132028
0.131574
0.131098
0.133882
0.133022
0.132261
0.131613
0.131116
0.130833
0.130864
0.131319
0.131878
0.132277
0.13235
0.132191
0.131916
0.131485
0.131091
0.13071
0.130348
0.129964
0.129584
0.129169
0.133879
0.133015
0.132246
0.131581
0.131048
0.130688
0.130547
0.13066
0.130837
0.13091
0.13079
0.13052
0.13023
0.129847
0.129499
0.129163
0.128844
0.128507
0.128179
0.12781
0.133877
0.13301
0.132234
0.131556
0.130997
0.130582
0.130332
0.130243
0.130194
0.130065
0.129817
0.129488
0.12916
0.128802
0.128476
0.128163
0.127867
0.127558
0.127261
0.126918
0.133876
0.133006
0.132224
0.131537
0.130958
0.130504
0.130183
0.129971
0.129784
0.12953
0.129195
0.128821
0.128463
0.128107
0.127786
0.12748
0.127193
0.126896
0.126617
0.126291
0.133875
0.133003
0.132217
0.131522
0.13093
0.130448
0.130077
0.129789
0.129515
0.129188
0.128783
0.128374
0.127992
0.127635
0.127313
0.127013
0.126734
0.126448
0.126183
0.12587
0.133874
0.133001
0.132212
0.131511
0.130908
0.130406
0.130001
0.129671
0.129338
0.128963
0.128519
0.12809
0.127693
0.127331
0.127008
0.12671
0.126433
0.126152
0.125894
0.12559
0.133874
0.133
0.132208
0.131503
0.130891
0.130375
0.129949
0.129585
0.129222
0.128815
0.12837
0.127928
0.127522
0.127157
0.126832
0.126533
0.126256
0.125978
0.125725
0.125428
0.133875
0.133
0.132206
0.131497
0.130879
0.130354
0.129915
0.129533
0.129157
0.128737
0.128283
0.127836
0.127425
0.127056
0.126726
0.126425
0.126145
0.125865
0.125611
0.125314
0.133868
0.132986
0.132183
0.131463
0.130831
0.130292
0.129834
0.129441
0.129046
0.12862
0.128153
0.127702
0.127286
0.126913
0.126577
0.126264
0.125974
0.125684
0.125421
0.125118
0.134483
0.132306
0.126748
0.110889
0.0509361
0.049853
0.134469
0.133597
0.132982
0.132211
0.127337
0.120605
0.0961971
0.085218
0.64927
0.947632
1.13951
1.0763
1.15435
0.918751
0.134
0.133237
0.132673
0.132327
0.132404
0.133023
0.126482
0.111935
0.231642
0.417789
0.69203
0.838281
0.585692
0.577372
0.489494
0.133952
0.133175
0.132561
0.132193
0.132351
0.133731
0.134663
0.131346
0.0736925
0.0824021
0.14436
0.118128
0.117916
0.120417
0.12422
0.130992
0.136751
0.139443
0.133924
0.133118
0.132459
0.132021
0.132018
0.133144
0.135778
0.14122
0.141792
0.134472
0.128217
0.129122
0.134579
0.135146
0.135923
0.136696
0.137475
0.138057
0.138489
0.138622
0.133908
0.133083
0.13239
0.131884
0.131722
0.132344
0.134781
0.139315
0.142863
0.143199
0.144136
0.144604
0.144227
0.143709
0.143103
0.142506
0.141946
0.141362
0.140774
0.140139
0.133897
0.13306
0.132341
0.131784
0.131494
0.131748
0.133242
0.136683
0.13962
0.141357
0.142215
0.142272
0.141694
0.141068
0.140352
0.139666
0.139021
0.138369
0.13772
0.137054
0.13389
0.133043
0.132307
0.13171
0.131328
0.131324
0.132101
0.134126
0.136153
0.137614
0.138233
0.138373
0.137899
0.137338
0.136683
0.136064
0.135494
0.13493
0.134377
0.133806
0.133885
0.133031
0.13228
0.131654
0.131206
0.131034
0.131346
0.132385
0.133561
0.134451
0.13479
0.134757
0.134402
0.133856
0.133376
0.132913
0.132473
0.132018
0.131569
0.131096
0.133882
0.133022
0.132261
0.131613
0.131116
0.130833
0.130864
0.131318
0.131879
0.132278
0.132354
0.132193
0.131918
0.131493
0.131099
0.130712
0.130342
0.129957
0.12958
0.129167
0.133879
0.133015
0.132246
0.131581
0.131048
0.130688
0.130547
0.130659
0.130837
0.130911
0.130792
0.130521
0.130229
0.129848
0.1295
0.129163
0.12884
0.128503
0.128178
0.12781
0.133877
0.13301
0.132234
0.131556
0.130997
0.130582
0.130333
0.130243
0.130194
0.130066
0.129818
0.129488
0.12916
0.128802
0.128478
0.128164
0.127866
0.127555
0.12726
0.126918
0.133876
0.133006
0.132224
0.131537
0.130958
0.130504
0.130183
0.129971
0.129784
0.129531
0.129196
0.128821
0.128463
0.128107
0.127787
0.127481
0.127192
0.126895
0.126617
0.126291
0.133875
0.133003
0.132217
0.131522
0.13093
0.130448
0.130077
0.129789
0.129515
0.129188
0.128784
0.128374
0.127992
0.127634
0.127314
0.127014
0.126733
0.126447
0.126183
0.12587
0.133874
0.133001
0.132212
0.131511
0.130908
0.130406
0.130001
0.129671
0.129338
0.128963
0.128519
0.12809
0.127693
0.127331
0.127008
0.12671
0.126433
0.126152
0.125894
0.12559
0.133874
0.133
0.132209
0.131503
0.130891
0.130375
0.129949
0.129585
0.129222
0.128815
0.12837
0.127928
0.127522
0.127157
0.126832
0.126533
0.126256
0.125978
0.125725
0.125428
0.133875
0.133
0.132206
0.131497
0.130879
0.130354
0.129915
0.129533
0.129157
0.128737
0.128283
0.127836
0.127425
0.127055
0.126726
0.126425
0.126145
0.125865
0.125611
0.125314
0.133868
0.132986
0.132183
0.131463
0.130831
0.130292
0.129834
0.129441
0.129046
0.12862
0.128153
0.127703
0.127286
0.126913
0.126577
0.126264
0.125974
0.125684
0.12542
0.125118
0.134483
0.132348
0.127571
0.11364
0.0520843
0.0506827
0.134469
0.133597
0.132985
0.132279
0.127769
0.121096
0.0965628
0.0875713
0.666614
0.965024
1.14353
1.13883
1.22896
0.941802
0.134
0.133236
0.132674
0.132329
0.132406
0.133027
0.126372
0.110983
0.283431
0.390495
0.605283
0.810986
0.590048
0.588843
0.503979
0.133952
0.133175
0.132561
0.132193
0.13235
0.133728
0.134568
0.130452
0.0734548
0.0814887
0.15053
0.122774
0.12092
0.121422
0.123741
0.130112
0.136101
0.139093
0.133924
0.133118
0.132459
0.132021
0.132018
0.133142
0.135733
0.140758
0.140593
0.133443
0.128269
0.130433
0.135622
0.135903
0.136387
0.136893
0.137467
0.137921
0.138313
0.138463
0.133908
0.133083
0.13239
0.131884
0.131723
0.132342
0.134763
0.139164
0.142678
0.143196
0.144297
0.144789
0.14433
0.143781
0.143178
0.142582
0.141992
0.141379
0.140772
0.140125
0.133897
0.13306
0.132341
0.131784
0.131494
0.131747
0.133237
0.136648
0.139588
0.141378
0.142262
0.142313
0.141713
0.141094
0.140386
0.139695
0.139031
0.138369
0.137717
0.137051
0.13389
0.133043
0.132307
0.13171
0.131328
0.131324
0.1321
0.134122
0.136153
0.137625
0.138258
0.138392
0.137908
0.137363
0.136716
0.136087
0.135496
0.134921
0.134366
0.133798
0.133885
0.133031
0.13228
0.131654
0.131206
0.131034
0.131345
0.132384
0.133563
0.134454
0.134799
0.134769
0.134408
0.133863
0.133384
0.132917
0.132468
0.13201
0.131563
0.131092
0.133882
0.133022
0.132261
0.131613
0.131116
0.130833
0.130864
0.131318
0.131879
0.132278
0.132358
0.132195
0.13192
0.131499
0.131108
0.130717
0.130339
0.12995
0.129575
0.129164
0.133879
0.133015
0.132246
0.131581
0.131048
0.130688
0.130547
0.130659
0.130837
0.130911
0.130794
0.130523
0.130229
0.12985
0.129502
0.129163
0.128837
0.128499
0.128175
0.127809
0.133877
0.13301
0.132234
0.131556
0.130997
0.130582
0.130333
0.130243
0.130194
0.130065
0.129818
0.129489
0.12916
0.128803
0.12848
0.128166
0.127865
0.127553
0.127259
0.126917
0.133876
0.133006
0.132224
0.131537
0.130958
0.130504
0.130183
0.129971
0.129785
0.129531
0.129197
0.128821
0.128462
0.128107
0.127788
0.127481
0.127191
0.126894
0.126616
0.126291
0.133875
0.133003
0.132217
0.131522
0.13093
0.130448
0.130077
0.129789
0.129515
0.129188
0.128784
0.128374
0.127991
0.127633
0.127314
0.127014
0.126733
0.126447
0.126182
0.12587
0.133874
0.133001
0.132212
0.131511
0.130908
0.130406
0.130001
0.129671
0.129338
0.128963
0.128519
0.12809
0.127693
0.127331
0.127009
0.12671
0.126432
0.126151
0.125894
0.12559
0.133874
0.133
0.132209
0.131503
0.130891
0.130375
0.129949
0.129585
0.129222
0.128815
0.12837
0.127928
0.127522
0.127157
0.126832
0.126533
0.126256
0.125978
0.125725
0.125428
0.133875
0.133
0.132206
0.131497
0.130879
0.130354
0.129915
0.129533
0.129157
0.128737
0.128283
0.127836
0.127425
0.127055
0.126727
0.126425
0.126145
0.125865
0.12561
0.125314
0.133868
0.132986
0.132183
0.131463
0.130831
0.130292
0.129834
0.129441
0.129045
0.12862
0.128153
0.127703
0.127286
0.126914
0.126577
0.126264
0.125974
0.125684
0.12542
0.125117
0.134483
0.132358
0.127901
0.115279
0.0530281
0.0513405
0.134469
0.133598
0.132987
0.13233
0.128167
0.121752
0.097295
0.0903057
0.614705
0.978404
1.15056
1.18097
1.31075
0.972308
0.134
0.133236
0.132673
0.132332
0.132414
0.133059
0.126486
0.111413
0.340224
0.396742
0.531409
0.7428
0.579976
0.590276
0.515439
0.133952
0.133175
0.132561
0.132193
0.132351
0.13373
0.13454
0.130038
0.0743703
0.0815522
0.149944
0.125742
0.12386
0.123212
0.124152
0.129739
0.135633
0.138785
0.133924
0.133118
0.132459
0.132021
0.132018
0.133142
0.135705
0.140376
0.139536
0.132084
0.127388
0.130751
0.136398
0.136641
0.136977
0.137269
0.137624
0.137906
0.138207
0.138333
0.133908
0.133083
0.13239
0.131884
0.131723
0.132342
0.134748
0.139009
0.142405
0.142995
0.144282
0.144887
0.144417
0.143854
0.143258
0.142668
0.142058
0.141415
0.140785
0.140124
0.133897
0.13306
0.132341
0.131784
0.131494
0.131747
0.133231
0.136602
0.139517
0.14134
0.142268
0.142338
0.141733
0.141122
0.140425
0.139729
0.139048
0.138374
0.137717
0.137049
0.13389
0.133043
0.132307
0.13171
0.131329
0.131324
0.132098
0.134112
0.136141
0.137621
0.138271
0.138407
0.137917
0.137383
0.136748
0.136115
0.135509
0.13492
0.134358
0.13379
0.133885
0.133031
0.132281
0.131654
0.131206
0.131034
0.131344
0.132381
0.133562
0.134454
0.134805
0.134779
0.134416
0.133872
0.133394
0.132925
0.132468
0.132004
0.131556
0.131087
0.133882
0.133022
0.132261
0.131613
0.131116
0.130833
0.130863
0.131317
0.131878
0.132277
0.13236
0.132197
0.131922
0.131504
0.131116
0.130724
0.13034
0.129946
0.12957
0.12916
0.133879
0.133015
0.132246
0.131581
0.131048
0.130688
0.130547
0.130659
0.130836
0.13091
0.130794
0.130524
0.13023
0.129851
0.129505
0.129165
0.128836
0.128496
0.128172
0.127807
0.133877
0.13301
0.132234
0.131556
0.130997
0.130582
0.130333
0.130243
0.130194
0.130065
0.129819
0.12949
0.12916
0.128803
0.128481
0.128168
0.127865
0.127552
0.127257
0.126916
0.133876
0.133006
0.132224
0.131537
0.130958
0.130504
0.130183
0.129971
0.129785
0.12953
0.129197
0.128821
0.128462
0.128106
0.127788
0.127482
0.127191
0.126893
0.126615
0.12629
0.133875
0.133003
0.132217
0.131522
0.13093
0.130448
0.130077
0.129789
0.129515
0.129188
0.128784
0.128374
0.127991
0.127633
0.127314
0.127014
0.126733
0.126446
0.126182
0.125869
0.133874
0.133001
0.132212
0.131511
0.130908
0.130406
0.130001
0.129671
0.129339
0.128963
0.12852
0.12809
0.127693
0.12733
0.127009
0.12671
0.126432
0.126151
0.125894
0.12559
0.133874
0.133
0.132209
0.131503
0.130891
0.130375
0.129949
0.129585
0.129222
0.128815
0.12837
0.127928
0.127522
0.127157
0.126832
0.126534
0.126256
0.125978
0.125725
0.125428
0.133875
0.133
0.132206
0.131497
0.130879
0.130354
0.129915
0.129533
0.129157
0.128737
0.128283
0.127836
0.127425
0.127055
0.126727
0.126426
0.126145
0.125864
0.12561
0.125314
0.133868
0.132986
0.132183
0.131463
0.130831
0.130292
0.129834
0.129441
0.129045
0.12862
0.128153
0.127703
0.127286
0.126914
0.126577
0.126264
0.125975
0.125684
0.12542
0.125117
0.134483
0.132361
0.128018
0.116132
0.0537142
0.0518838
0.134469
0.133598
0.132988
0.132365
0.128487
0.122429
0.0982258
0.0926608
0.587819
0.923531
1.16195
1.19567
1.34534
1.00591
0.134
0.133236
0.132673
0.132334
0.132427
0.133116
0.126772
0.112588
0.371413
0.430062
0.487194
0.659607
0.554639
0.578714
0.521193
0.133952
0.133175
0.132561
0.132193
0.132352
0.133737
0.134581
0.130094
0.0757298
0.0823153
0.148523
0.127043
0.126044
0.125165
0.125154
0.129769
0.135314
0.138536
0.133924
0.133118
0.132459
0.132021
0.132018
0.133142
0.135697
0.140154
0.13891
0.130985
0.126232
0.130298
0.136765
0.137174
0.137537
0.137735
0.137911
0.138013
0.138188
0.138255
0.133908
0.133083
0.13239
0.131884
0.131723
0.132342
0.134739
0.138886
0.142133
0.142691
0.144119
0.144868
0.144448
0.143899
0.143329
0.142754
0.142138
0.141469
0.140815
0.140138
0.133897
0.13306
0.132341
0.131784
0.131495
0.131747
0.133227
0.136558
0.139426
0.141256
0.142228
0.142329
0.141737
0.14114
0.140464
0.139769
0.139074
0.138386
0.13772
0.137051
0.13389
0.133043
0.132307
0.13171
0.131329
0.131324
0.132097
0.1341
0.136119
0.137602
0.138268
0.138414
0.137921
0.137395
0.136775
0.136145
0.135529
0.134926
0.134355
0.133784
0.133885
0.133031
0.132281
0.131655
0.131206
0.131034
0.131344
0.132378
0.133558
0.134451
0.134806
0.134785
0.134423
0.133879
0.133405
0.132935
0.132472
0.132002
0.131551
0.131082
0.133882
0.133022
0.132261
0.131613
0.131116
0.130833
0.130863
0.131316
0.131878
0.132275
0.13236
0.132198
0.131923
0.131507
0.131124
0.130732
0.130344
0.129945
0.129566
0.129156
0.133879
0.133015
0.132246
0.131581
0.131048
0.130688
0.130547
0.130658
0.130836
0.130909
0.130794
0.130525
0.13023
0.129852
0.129507
0.129167
0.128836
0.128494
0.128169
0.127805
0.133877
0.13301
0.132234
0.131556
0.130997
0.130582
0.130333
0.130242
0.130194
0.130064
0.129818
0.12949
0.12916
0.128804
0.128483
0.12817
0.127866
0.127551
0.127255
0.126914
0.133876
0.133006
0.132224
0.131537
0.130958
0.130504
0.130183
0.129971
0.129785
0.12953
0.129197
0.128822
0.128463
0.128107
0.127789
0.127482
0.127191
0.126892
0.126614
0.12629
0.133875
0.133003
0.132217
0.131522
0.13093
0.130448
0.130077
0.129789
0.129515
0.129188
0.128784
0.128374
0.127992
0.127632
0.127314
0.127015
0.126733
0.126446
0.126181
0.125869
0.133874
0.133001
0.132212
0.131511
0.130908
0.130406
0.130001
0.129671
0.129339
0.128963
0.12852
0.12809
0.127693
0.12733
0.127009
0.126711
0.126432
0.126151
0.125893
0.125589
0.133874
0.133
0.132209
0.131503
0.130891
0.130375
0.129949
0.129585
0.129222
0.128815
0.12837
0.127928
0.127522
0.127157
0.126832
0.126534
0.126256
0.125978
0.125725
0.125428
0.133875
0.133
0.132206
0.131497
0.130879
0.130354
0.129915