/*--------------------------------*- C++ -*----------------------------------*\
  =========                 |
  \\      /  F ield         | OpenFOAM: The Open Source CFD Toolbox
   \\    /   O peration     | Website:  https://openfoam.org
    \\  /    A nd           | Version:  10
     \\/     M anipulation  |
\*---------------------------------------------------------------------------*/
FoamFile
{
    format      ascii;
    class       volScalarField;
    location    "2000";
    object      omega;
}
// * * * * * * * * * * * * * * * * * * * * * * * * * * * * * * * * * * * * * //

dimensions      [0 0 -1 0 0 0 0];

internalField   nonuniform List<scalar> 
55398
(
1.74528
1.77867
2.07103
3.67452
5.31626
9.73056
1.69089
1.53524
1.40708
1.30471
1.24933
1.2675
2.07806
6.03945
7.87305
6.5545
5.57028
5.36784
4.88255
4.40904
1.61921
1.4845
1.36965
1.27175
1.1902
1.14843
1.39058
2.40682
8.60373
6.91782
5.53808
4.17376
3.22132
2.47878
2.04498
1.62024
1.4861
1.37213
1.27459
1.19228
1.13295
1.19291
1.47631
2.62404
12.0435
8.36459
4.10983
2.18166
1.8561
1.62722
1.42419
1.2887
1.1878
1.62174
1.48857
1.37532
1.27827
1.1958
1.13044
1.11661
1.25073
1.55997
1.89694
2.22585
1.89803
1.53255
1.20506
1.09737
1.01866
0.956947
0.893527
0.845843
0.804712
1.62311
1.4909
1.37835
1.28177
1.19929
1.13095
1.09053
1.11935
1.15672
1.17629
1.16788
1.08758
1.02671
0.967752
0.909971
0.863056
0.823366
0.783796
0.750121
0.71996
1.62435
1.493
1.38109
1.28463
1.20276
1.13262
1.08104
1.06257
1.05532
1.04323
1.00888
0.966476
0.923382
0.878647
0.838635
0.803223
0.771301
0.739694
0.711198
0.68456
1.62545
1.49489
1.38357
1.28795
1.20551
1.13547
1.0791
1.04015
1.01086
0.983138
0.948732
0.91238
0.876039
0.839131
0.805793
0.774684
0.745885
0.717786
0.691759
0.667328
1.62573
1.49623
1.3858
1.29095
1.20877
1.13869
1.07929
1.03215
0.993204
0.95804
0.922522
0.887737
0.853276
0.819789
0.788694
0.759842
0.732561
0.706287
0.681474
0.65836
1.62743
1.49817
1.38786
1.29299
1.21125
1.14111
1.08089
1.03011
0.986604
0.947768
0.910958
0.876009
0.842669
0.810616
0.780766
0.752637
0.726075
0.700656
0.676639
0.653883
1.62825
1.4996
1.38972
1.29518
1.21362
1.14335
1.08245
1.03002
0.984401
0.943712
0.905943
0.870409
0.837394
0.805886
0.776447
0.748578
0.722496
0.697519
0.673896
0.651444
1.629
1.5009
1.39143
1.29719
1.21581
1.14544
1.08419
1.03093
0.984269
0.942314
0.903665
0.867965
0.834782
0.803756
0.774144
0.746601
0.720618
0.695944
0.672579
0.650303
1.62969
1.5021
1.393
1.29904
1.21787
1.14746
1.08601
1.03221
0.98489
0.942086
0.902905
0.866864
0.83347
0.802301
0.773056
0.745581
0.719653
0.695122
0.671902
0.64974
1.63033
1.50322
1.39446
1.30077
1.22008
1.14926
1.08771
1.03361
0.985734
0.942554
0.90289
0.866461
0.833028
0.801778
0.772524
0.745183
0.719329
0.694912
0.671803
0.649718
1.63093
1.50426
1.39581
1.30237
1.22155
1.15108
1.08943
1.03517
0.986934
0.943399
0.903443
0.866953
0.833205
0.801912
0.772676
0.745365
0.719548
0.69519
0.672139
0.650096
1.63149
1.50524
1.39708
1.30385
1.22297
1.15275
1.09108
1.03671
0.988271
0.944487
0.904444
0.867778
0.833924
0.80258
0.773381
0.745987
0.720181
0.695842
0.672838
0.650831
1.63202
1.50616
1.39827
1.30522
1.22457
1.15425
1.09265
1.03827
0.989751
0.945858
0.905728
0.868971
0.835034
0.80363
0.774363
0.746977
0.721141
0.696794
0.673768
0.65175
1.63245
1.50691
1.39922
1.30631
1.2257
1.15543
1.09384
1.03951
0.990926
0.947005
0.906826
0.870041
0.83605
0.804607
0.775368
0.747907
0.722001
0.697588
0.674513
0.652454
1.74007
1.69555
1.75389
2.7274
5.89883
7.47442
1.69083
1.53523
1.40686
1.30151
1.24089
1.25084
1.92174
4.99038
6.06474
6.12063
5.53861
5.27999
4.80504
4.04939
1.61907
1.48419
1.36977
1.27169
1.18998
1.14487
1.36391
2.33712
9.27232
6.65275
5.37598
4.1264
2.58814
2.46887
1.85959
1.62028
1.48609
1.37216
1.27468
1.19247
1.13245
1.18038
1.45158
3.1188
7.39099
8.27714
2.74496
2.1723
1.84187
1.61087
1.40515
1.26109
1.14947
1.62179
1.48858
1.37536
1.27837
1.19591
1.13045
1.11244
1.23657
1.52125
1.82627
2.01387
1.89282
1.38323
1.22146
1.09931
1.01762
0.954225
0.89033
0.840113
0.796578
1.62316
1.4909
1.37838
1.28186
1.19939
1.13106
1.08935
1.11261
1.149
1.17037
1.1417
1.08736
1.02818
0.965437
0.907835
0.861786
0.822088
0.782399
0.74794
0.716673
1.62439
1.493
1.38112
1.28486
1.20272
1.13297
1.08081
1.06045
1.05158
1.0395
1.00603
0.965537
0.923432
0.878459
0.838972
0.802881
0.770654
0.739387
0.710279
0.683237
1.62549
1.49489
1.38359
1.28799
1.2057
1.1353
1.07923
1.03958
1.00945
0.981458
0.947191
0.911693
0.875831
0.839052
0.805634
0.774358
0.745492
0.717557
0.691367
0.666679
1.62607
1.49624
1.3857
1.29079
1.20883
1.13882
1.0793
1.03214
0.992815
0.957437
0.921868
0.887359
0.853014
0.819671
0.788699
0.759626
0.732358
0.706169
0.68137
0.658007
1.62743
1.49818
1.38788
1.29303
1.21131
1.14125
1.0808
1.0303
0.986681
0.947631
0.910728
0.875826
0.842488
0.81053
0.780725
0.752519
0.725951
0.70057
0.676553
0.65371
1.62825
1.49961
1.38974
1.29521
1.21367
1.1436
1.08245
1.03019
0.984615
0.943707
0.90583
0.870223
0.837271
0.805826
0.776418
0.748555
0.722388
0.69746
0.67386
0.65136
1.629
1.50091
1.39144
1.29722
1.21585
1.14549
1.08445
1.03122
0.984391
0.942355
0.903667
0.867908
0.834622
0.803856
0.77405
0.74653
0.720551
0.695891
0.67255
0.650247
1.62969
1.50211
1.39301
1.29907
1.21791
1.1475
1.08623
1.03247
0.984973
0.942163
0.902928
0.866832
0.833366
0.802252
0.773083
0.745545
0.719622
0.69509
0.671892
0.649715
1.63033
1.50322
1.39447
1.30079
1.2201
1.14939
1.08792
1.03384
0.985838
0.942601
0.90291
0.866391
0.832977
0.801768
0.772534
0.745175
0.719316
0.694888
0.671799
0.64971
1.63093
1.50426
1.39582
1.30238
1.22157
1.15122
1.08962
1.03536
0.987027
0.943442
0.903467
0.866952
0.833177
0.801907
0.772682
0.745358
0.719533
0.695162
0.672134
0.650097
1.63149
1.50524
1.39708
1.30385
1.22304
1.15281
1.09121
1.03686
0.988344
0.944523
0.904467
0.867781
0.8339
0.802577
0.773371
0.745999
0.720172
0.69582
0.672829
0.650831
1.63201
1.50616
1.39827
1.30523
1.22457
1.1543
1.09273
1.03836
0.989798
0.945881
0.905744
0.868972
0.835011
0.803626
0.774371
0.746971
0.721126
0.696766
0.673761
0.651752
1.63245
1.50691
1.39922
1.30631
1.22569
1.15544
1.09386
1.03955
0.990949
0.947016
0.906833
0.870041
0.836028
0.8046
0.775373
0.747877
0.721982
0.697566
0.67451
0.652463
1.73821
1.6426
1.66319
2.0868
4.4868
6.22708
1.69086
1.53521
1.40693
1.30249
1.24712
1.24828
1.82207
4.27898
5.60161
5.83064
5.47418
5.01715
4.57816
3.82626
1.61907
1.48412
1.36974
1.27166
1.19006
1.14353
1.35009
2.22361
13.2225
6.72117
5.39313
4.15921
2.56184
2.40914
1.84709
1.62031
1.48608
1.37217
1.27465
1.19249
1.13234
1.18202
1.44006
2.47848
4.73173
8.19006
2.67256
2.20083
1.8557
1.6035
1.39584
1.25261
1.14421
1.62182
1.48857
1.37537
1.27835
1.19586
1.13054
1.11385
1.23479
1.51618
1.81982
1.99878
1.85071
1.37028
1.21884
1.10696
1.02163
0.953247
0.889163
0.838379
0.795418
1.62319
1.49089
1.37839
1.28185
1.19934
1.13122
1.08984
1.11288
1.15202
1.17274
1.14164
1.08902
1.02531
0.9617
0.90798
0.861741
0.821015
0.781563
0.747126
0.716139
1.62442
1.493
1.38113
1.28494
1.20264
1.1333
1.0809
1.06062
1.05264
1.04041
1.00621
0.965791
0.924125
0.877771
0.838679
0.802855
0.770135
0.738751
0.709487
0.682974
1.62552
1.49489
1.38361
1.28797
1.20573
1.13573
1.07897
1.03954
1.0097
0.981666
0.94725
0.911682
0.875876
0.838858
0.805425
0.774225
0.74516
0.717177
0.690994
0.666574
1.62627
1.49631
1.38567
1.29065
1.20875
1.13885
1.0794
1.03213
0.992816
0.957467
0.921842
0.887182
0.853135
0.81956
0.788634
0.759546
0.732197
0.705978
0.681232
0.657963
1.62744
1.49817
1.38789
1.29303
1.21129
1.14128
1.08086
1.03025
0.986649
0.947653
0.910717
0.875644
0.842502
0.810431
0.780649
0.752461
0.725862
0.700453
0.676458
0.653699
1.62826
1.4996
1.38976
1.29522
1.21365
1.14355
1.08256
1.0302
0.984594
0.943721
0.905797
0.870109
0.837302
0.805765
0.776366
0.748544
0.722336
0.697387
0.673811
0.651365
1.629
1.5009
1.39146
1.29722
1.21583
1.14555
1.08442
1.03116
0.984403
0.942376
0.903669
0.867908
0.83463
0.803717
0.774004
0.746488
0.720515
0.695833
0.672512
0.650249
1.62969
1.5021
1.39303
1.29907
1.2179
1.14755
1.08621
1.03242
0.98497
0.942186
0.90293
0.866841
0.833368
0.8022
0.772949
0.745478
0.719602
0.695054
0.671874
0.649723
1.63033
1.50322
1.39448
1.3008
1.22003
1.14946
1.08793
1.03381
0.985856
0.942612
0.902904
0.866464
0.832905
0.801842
0.772396
0.745106
0.719305
0.694862
0.67179
0.64972
1.63093
1.50426
1.39583
1.30239
1.22161
1.1512
1.08961
1.03534
0.987047
0.943454
0.903464
0.866955
0.833162
0.801899
0.772672
0.74534
0.71954
0.695143
0.672129
0.650105
1.63149
1.50524
1.3971
1.30386
1.22309
1.15278
1.09119
1.03683
0.98836
0.944533
0.904467
0.867785
0.833882
0.802569
0.773352
0.745995
0.720186
0.695806
0.672825
0.650836
1.63202
1.50616
1.39829
1.30523
1.22459
1.1543
1.09272
1.03834
0.989807
0.945887
0.905745
0.868975
0.834991
0.803617
0.774357
0.74697
0.721135
0.696746
0.673755
0.651756
1.63245
1.5069
1.39924
1.30631
1.22569
1.15543
1.09386
1.03954
0.990955
0.947021
0.906836
0.870043
0.836006
0.804588
0.775387
0.747845
0.721975
0.697542
0.674507
0.652469
1.73794
1.60657
1.60251
1.82628
4.02873
5.67703
1.69085
1.53519
1.40692
1.30259
1.25323
1.24942
1.78549
3.93539
5.2615
5.5261
5.32726
4.96164
4.52127
3.73319
1.61906
1.48408
1.36971
1.27163
1.19018
1.14291
1.33795
2.188
17.2365
6.93737
5.48113
4.23743
2.59074
2.40955
1.8462
1.62033
1.48608
1.37217
1.27463
1.1925
1.13221
1.18101
1.43712
2.27923
4.78862
8.29149
2.61689
2.19286
1.86053
1.60568
1.40785
1.2583
1.14413
1.62184
1.48857
1.37537
1.27834
1.19583
1.13057
1.11449
1.23216
1.48675
1.77556
1.95075
1.81603
1.36971
1.23313
1.11842
1.028
0.955686
0.892545
0.83972
0.795455
1.62321
1.49089
1.3784
1.28184
1.19931
1.1313
1.09022
1.11271
1.15211
1.17295
1.14145
1.09017
1.02534
0.964447
0.909859
0.862422
0.820893
0.782218
0.74734
0.716012
1.62443
1.493
1.38114
1.28499
1.20261
1.1335
1.08104
1.06073
1.05321
1.04112
1.00652
0.966072
0.922477
0.876581
0.838467
0.802761
0.769914
0.738844
0.709688
0.682947
1.62553
1.49489
1.38361
1.28796
1.20574
1.13598
1.0789
1.03951
1.00988
0.981907
0.94738
0.911794
0.87505
0.838069
0.805217
0.774061
0.744958
0.717196
0.691032
0.666557
1.62639
1.49638
1.38568
1.29057
1.20868
1.13885
1.07943
1.03213
0.992831
0.957512
0.921864
0.887082
0.853068
0.819146
0.788569
0.759474
0.732104
0.705984
0.681262
0.657964
1.62744
1.49817
1.38789
1.29302
1.21127
1.14128
1.08088
1.03023
0.986628
0.947664
0.910721
0.875491
0.842538
0.81029
0.780643
0.752424
0.725814
0.700453
0.676456
0.6537
1.62826
1.4996
1.38977
1.29522
1.21363
1.14352
1.0826
1.03021
0.984587
0.943727
0.905784
0.870141
0.83723
0.805616
0.776355
0.748535
0.722315
0.697384
0.673802
0.65137
1.62901
1.5009
1.39147
1.29723
1.21582
1.14557
1.08441
1.03113
0.984396
0.942386
0.903674
0.867915
0.834609
0.803429
0.77412
0.746515
0.720513
0.695828
0.672494
0.650247
1.6297
1.5021
1.39304
1.29908
1.21789
1.14757
1.0862
1.03239
0.984956
0.942194
0.902935
0.866851
0.83336
0.802092
0.772929
0.745483
0.7196
0.69505
0.671858
0.649725
1.63034
1.50322
1.39449
1.30081
1.21999
1.14948
1.08794
1.0338
0.98586
0.942619
0.902905
0.866505
0.832881
0.801813
0.772302
0.745066
0.719293
0.694851
0.671772
0.649721
1.63093
1.50426
1.39584
1.3024
1.22164
1.15118
1.08959
1.03532
0.987051
0.943462
0.903467
0.866958
0.833163
0.801861
0.772558
0.745318
0.719545
0.695137
0.672111
0.650106
1.63149
1.50524
1.39711
1.30387
1.22312
1.15276
1.09117
1.03681
0.988361
0.94454
0.904471
0.867788
0.833886
0.802547
0.773256
0.745985
0.7202
0.695806
0.672809
0.650834
1.63202
1.50616
1.3983
1.30524
1.2246
1.15429
1.09271
1.03833
0.989808
0.945891
0.905748
0.868978
0.834994
0.803601
0.774283
0.74697
0.721151
0.696744
0.67374
0.651754
1.63246
1.5069
1.39924
1.30632
1.2257
1.15543
1.09385
1.03953
0.990956
0.947024
0.906841
0.870046
0.836008
0.804587
0.775357
0.747828
0.721975
0.69753
0.67449
0.652469
1.73785
1.59069
1.55194
1.68569
3.76903
5.45723
1.69085
1.53518
1.40688
1.30185
1.25424
1.24889
1.74572
3.89887
4.96752
5.23039
5.11347
4.93067
4.5205
3.68719
1.61905
1.48406
1.36968
1.27161
1.19028
1.14252
1.32801
2.13489
18.7239
7.09398
5.58953
4.36054
2.62874
2.43085
1.85203
1.62034
1.48608
1.37217
1.27462
1.1925
1.1321
1.17869
1.4266
2.18716
4.60003
8.87607
2.58536
2.17448
1.85639
1.60661
1.41556
1.26458
1.14609
1.62185
1.48857
1.37538
1.27833
1.19581
1.13057
1.11441
1.22822
1.46099
1.72042
1.87896
1.7731
1.36445
1.23784
1.1259
1.03408
0.959232
0.895742
0.841626
0.796112
1.62321
1.49089
1.3784
1.28183
1.19929
1.13133
1.09041
1.11198
1.15005
1.17026
1.13985
1.08994
1.02513
0.965894
0.911451
0.863398
0.82117
0.782688
0.74764
0.716042
1.62444
1.493
1.38114
1.28501
1.2026
1.13361
1.08116
1.06071
1.0532
1.04126
1.00665
0.966141
0.921526
0.878119
0.838953
0.802887
0.769824
0.738867
0.709824
0.682982
1.62554
1.49489
1.38362
1.28796
1.20574
1.13612
1.07892
1.0395
1.00995
0.982079
0.947522
0.911906
0.874742
0.838645
0.805336
0.774001
0.744807
0.717152
0.691045
0.666556
1.62645
1.49645
1.3857
1.29053
1.20862
1.13884
1.07945
1.03213
0.992843
0.957551
0.921904
0.887039
0.853123
0.819171
0.788558
0.759425
0.732027
0.705961
0.681274
0.657971
1.62744
1.49817
1.3879
1.29302
1.21125
1.14128
1.08089
1.03022
0.986614
0.947668
0.910729
0.875405
0.842532
0.810377
0.780682
0.752414
0.725777
0.70044
0.676452
0.653701
1.62826
1.4996
1.38977
1.29522
1.21363
1.1435
1.08262
1.03022
0.984588
0.943733
0.90578
0.870158
0.837199
0.805613
0.776357
0.748531
0.722299
0.697378
0.673796
0.651372
1.62901
1.5009
1.39147
1.29723
1.21582
1.14559
1.08442
1.03111
0.984386
0.942388
0.903679
0.86792
0.8346
0.803331
0.774166
0.746548
0.720523
0.69583
0.672485
0.650243
1.6297
1.5021
1.39304
1.29908
1.21789
1.14758
1.0862
1.03237
0.984942
0.942194
0.902938
0.866857
0.833359
0.802061
0.772939
0.745493
0.719603
0.695049
0.67185
0.649723
1.63034
1.50322
1.3945
1.30081
1.21998
1.14948
1.08794
1.03379
0.985859
0.942623
0.902906
0.866529
0.832878
0.801691
0.772381
0.745078
0.71929
0.694845
0.671759
0.649717
1.63094
1.50426
1.39585
1.30241
1.22166
1.15118
1.08958
1.03531
0.987047
0.943465
0.90347
0.866959
0.833168
0.801838
0.772562
0.745311
0.719545
0.695136
0.6721
0.650101
1.6315
1.50524
1.39711
1.30388
1.22315
1.15276
1.09116
1.0368
0.988355
0.944541
0.904474
0.86779
0.833896
0.802533
0.773242
0.745977
0.720205
0.695809
0.672801
0.65083
1.63202
1.50616
1.3983
1.30525
1.22461
1.15429
1.09271
1.03832
0.989805
0.945892
0.905751
0.86898
0.835008
0.803592
0.774259
0.746965
0.721158
0.696745
0.673731
0.65175
1.63246
1.50691
1.39925
1.30632
1.2257
1.15543
1.09385
1.03952
0.990954
0.947026
0.906845
0.870049
0.836025
0.804613
0.775325
0.74781
0.721968
0.69752
0.674476
0.652463
1.73782
1.5854
1.51888
1.60427
3.63042
5.40426
1.69084
1.53517
1.40684
1.30094
1.25137
1.24558
1.71623
4.11293
4.76626
4.97588
4.86269
4.87095
4.51514
3.67199
1.61904
1.48404
1.36967
1.27158
1.19032
1.14217
1.32195
2.12138
19.02
7.1058
5.65073
4.50067
2.67736
2.46435
1.86394
1.62035
1.48608
1.37217
1.27462
1.19251
1.13201
1.17642
1.4167
2.14097
4.38741
9.60483
2.58489
2.16207
1.8495
1.60532
1.4204
1.27043
1.1492
1.62185
1.48857
1.37538
1.27833
1.19581
1.13056
1.11399
1.22404
1.44286
1.67551
1.81603
1.72318
1.3527
1.2355
1.12873
1.03834
0.962722
0.898775
0.84379
0.797238
1.62322
1.4909
1.3784
1.28183
1.19929
1.13135
1.09043
1.11088
1.14706
1.16577
1.13678
1.08838
1.02424
0.96631
0.912503
0.864351
0.821674
0.783129
0.747973
0.716176
1.62445
1.493
1.38114
1.28503
1.2026
1.13367
1.08124
1.06057
1.05277
1.0408
1.00652
0.966071
0.920979
0.878696
0.83943
0.803126
0.769848
0.738886
0.70991
0.683034
1.62555
1.49489
1.38362
1.28796
1.20575
1.13621
1.07896
1.03949
1.00993
0.98213
0.947644
0.912014
0.874618
0.838956
0.805528
0.774033
0.744717
0.717085
0.69103
0.666552
1.62649
1.4965
1.38574
1.29053
1.20859
1.13883
1.07945
1.03213
0.992845
0.957573
0.921952
0.887041
0.853133
0.819228
0.788584
0.759404
0.731967
0.705922
0.681269
0.657975
1.62744
1.49817
1.3879
1.29302
1.21124
1.14128
1.0809
1.03022
0.986604
0.947666
0.910739
0.87536
0.842511
0.81043
0.78073
0.752422
0.725752
0.700421
0.676445
0.653699
1.62826
1.49959
1.38977
1.29523
1.21363
1.14349
1.08263
1.03023
0.98459
0.943736
0.905783
0.870168
0.837185
0.805611
0.776362
0.748529
0.722286
0.697369
0.673791
0.651371
1.62901
1.5009
1.39148
1.29724
1.21582
1.14559
1.08442
1.0311
0.984377
0.942385
0.903683
0.867925
0.834597
0.80328
0.774178
0.74657
0.720534
0.695834
0.672483
0.65024
1.6297
1.5021
1.39305
1.29909
1.21789
1.14759
1.0862
1.03236
0.984931
0.942191
0.902939
0.86686
0.83336
0.802043
0.772947
0.745502
0.719606
0.695049
0.671846
0.649721
1.63034
1.50322
1.3945
1.30082
1.21997
1.14948
1.08794
1.03378
0.985857
0.942625
0.902908
0.866543
0.832882
0.801621
0.772415
0.745098
0.719295
0.694843
0.671751
0.649712
1.63094
1.50426
1.39585
1.30241
1.22167
1.15118
1.08958
1.0353
0.987042
0.943465
0.903471
0.86696
0.833172
0.801818
0.772578
0.745316
0.719546
0.695135
0.672094
0.650097
1.6315
1.50524
1.39712
1.30388
1.22316
1.15277
1.09116
1.03679
0.988348
0.94454
0.904475
0.867791
0.833903
0.802515
0.773249
0.745978
0.720208
0.695811
0.672797
0.650826
1.63202
1.50616
1.3983
1.30525
1.22461
1.1543
1.09271
1.03832
0.989801
0.945891
0.905752
0.868981
0.835016
0.803572
0.774261
0.746964
0.721161
0.696747
0.673727
0.651746
1.63246
1.50691
1.39925
1.30633
1.22571
1.15544
1.09385
1.03952
0.990952
0.947025
0.906847
0.870051
0.836036
0.804643
0.775312
0.747795
0.721958
0.697511
0.674464
0.652455
1.73781
1.58389
1.50172
1.55533
3.55292
5.41366
1.69084
1.53516
1.4068
1.30015
1.24695
1.23966
1.69798
4.36726
4.79476
4.81636
4.62175
4.78024
4.48695
3.67563
1.61904
1.48403
1.36965
1.27157
1.19029
1.14179
1.31927
2.14608
18.2233
7.02843
5.62626
4.604
2.72819
2.50567
1.88238
1.62035
1.48609
1.37217
1.27461
1.19251
1.13192
1.17478
1.41332
2.13293
4.40411
10.0635
2.59955
2.15758
1.84333
1.60285
1.42353
1.27566
1.15293
1.62185
1.48857
1.37538
1.27833
1.19581
1.13054
1.11349
1.22094
1.4321
1.64667
1.7697
1.67719
1.33671
1.22821
1.12734
1.04011
0.965325
0.90143
0.845978
0.79866
1.62322
1.4909
1.3784
1.28183
1.19929
1.13135
1.09037
1.10976
1.14409
1.16084
1.13283
1.08584
1.02265
0.965891
0.912936
0.865072
0.822231
0.783587
0.748333
0.716387
1.62445
1.493
1.38114
1.28504
1.20261
1.13371
1.08128
1.06033
1.05209
1.03988
1.00606
0.965847
0.920613
0.878865
0.839753
0.803367
0.769934
0.738926
0.709977
0.683091
1.62555
1.49489
1.38362
1.28796
1.20576
1.13626
1.07901
1.03947
1.00984
0.982047
0.947704
0.912085
0.874583
0.839144
0.805723
0.774117
0.744685
0.717028
0.690999
0.666542
1.62651
1.49654
1.38577
1.29053
1.20858
1.13883
1.07946
1.03213
0.992836
0.95757
0.92199
0.887069
0.853146
0.819276
0.788627
0.759406
0.731926
0.705882
0.68125
0.657973
1.62744
1.49817
1.3879
1.29302
1.21124
1.14128
1.0809
1.03022
0.986597
0.947659
0.910749
0.875336
0.842493
0.810459
0.780778
0.752444
0.72574
0.700403
0.676433
0.653694
1.62826
1.49959
1.38977
1.29523
1.21363
1.14349
1.08263
1.03024
0.984591
0.943736
0.905788
0.870177
0.837181
0.80561
0.776371
0.74853
0.722277
0.697358
0.673784
0.651368
1.62901
1.5009
1.39148
1.29724
1.21582
1.1456
1.08443
1.0311
0.984371
0.942381
0.903685
0.86793
0.834598
0.803253
0.774183
0.746584
0.720544
0.695839
0.672483
0.650239
1.6297
1.5021
1.39305
1.29909
1.2179
1.14759
1.08621
1.03236
0.984923
0.942185
0.902939
0.866863
0.833361
0.802032
0.772958
0.745511
0.71961
0.695051
0.671845
0.649719
1.63034
1.50322
1.3945
1.30082
1.21996
1.14948
1.08795
1.03378
0.985854
0.942624
0.90291
0.866551
0.832887
0.801581
0.772431
0.745117
0.719305
0.694845
0.671747
0.649707
1.63094
1.50426
1.39585
1.30242
1.22168
1.15118
1.08958
1.03529
0.987037
0.943463
0.903472
0.866961
0.833175
0.801801
0.772597
0.745326
0.719551
0.695136
0.672091
0.650093
1.6315
1.50524
1.39712
1.30388
1.22317
1.15278
1.09116
1.03678
0.988342
0.944536
0.904475
0.867792
0.833907
0.802499
0.773267
0.745986
0.720212
0.695814
0.672796
0.650824
1.63202
1.50616
1.39831
1.30525
1.22462
1.1543
1.09271
1.03831
0.989798
0.94589
0.905752
0.868982
0.835022
0.803554
0.774278
0.74697
0.721165
0.696749
0.673725
0.651743
1.63246
1.50691
1.39926
1.30633
1.22571
1.15544
1.09385
1.03952
0.990949
0.947024
0.906848
0.870053
0.836043
0.80467
0.775327
0.747794
0.721952
0.697503
0.674454
0.652447
1.73782
1.58349
1.49433
1.52677
3.50929
5.42465
1.69084
1.53516
1.40677
1.29956
1.24266
1.23237
1.6867
4.54464
5.09918
4.8274
4.43361
4.68414
4.43233
3.68852
1.61903
1.48402
1.36965
1.27155
1.19023
1.14132
1.31851
2.18341
16.7332
6.91752
5.50261
4.64018
2.76935
2.54695
1.9062
1.62035
1.48609
1.37217
1.27461
1.19251
1.13182
1.1738
1.41591
2.15404
4.49403
10.1546
2.61128
2.15574
1.83788
1.59995
1.42547
1.28019
1.15698
1.62185
1.48858
1.37538
1.27833
1.19581
1.13052
1.11308
1.21957
1.42867
1.63347
1.74188
1.64175
1.31964
1.21808
1.12269
1.03936
0.966581
0.90342
0.847957
0.80019
1.62322
1.4909
1.37841
1.28184
1.19929
1.13135
1.09027
1.10893
1.14177
1.15653
1.12872
1.08278
1.02055
0.964833
0.912762
0.865438
0.8227
0.784033
0.748711
0.716652
1.62445
1.493
1.38115
1.28505
1.20262
1.13373
1.0813
1.06009
1.05137
1.03877
1.00534
0.965428
0.920272
0.878844
0.839933
0.803557
0.770035
0.738982
0.710037
0.683151
1.62555
1.4949
1.38362
1.28797
1.20576
1.13629
1.07904
1.03943
1.0097
0.981855
0.947675
0.9121
0.874566
0.839264
0.805897
0.774231
0.744699
0.716995
0.690967
0.666526
1.62653
1.49656
1.3858
1.29055
1.20858
1.13883
1.07946
1.03212
0.992816
0.957541
0.922005
0.887099
0.853167
0.819318
0.788676
0.759426
0.731905
0.705847
0.681226
0.657963
1.62744
1.49817
1.3879
1.29302
1.21123
1.14128
1.08091
1.03022
0.986591
0.947646
0.910753
0.875325
0.842479
0.810475
0.780818
0.752472
0.725738
0.700387
0.676419
0.653686
1.62826
1.49959
1.38977
1.29523
1.21363
1.14348
1.08263
1.03024
0.984592
0.943734
0.905791
0.870186
0.837183
0.805612
0.77638
0.748535
0.72227
0.697348
0.673775
0.651364
1.62901
1.5009
1.39148
1.29724
1.21582
1.1456
1.08443
1.0311
0.984368
0.942376
0.903685
0.867935
0.8346
0.803241
0.774184
0.746593
0.720551
0.695843
0.672484
0.65024
1.6297
1.5021
1.39305
1.29909
1.2179
1.1476
1.08621
1.03236
0.984919
0.94218
0.902937
0.866865
0.833362
0.802027
0.772964
0.745518
0.719614
0.695053
0.671844
0.649718
1.63034
1.50322
1.3945
1.30083
1.21996
1.14948
1.08795
1.03378
0.985852
0.942623
0.902911
0.866557
0.832893
0.80156
0.772433
0.745129
0.719314
0.694849
0.671747
0.649705
1.63094
1.50426
1.39586
1.30242
1.22169
1.15119
1.08958
1.03529
0.987033
0.94346
0.903471
0.866961
0.833177
0.801793
0.772605
0.745336
0.719557
0.695138
0.67209
0.650091
1.6315
1.50524
1.39712
1.30389
1.22318
1.15278
1.09116
1.03678
0.988337
0.944532
0.904473
0.867791
0.83391
0.80249
0.773274
0.745993
0.720217
0.695817
0.672797
0.650823
1.63202
1.50616
1.39831
1.30526
1.22462
1.15431
1.09271
1.03831
0.989796
0.945888
0.905752
0.868982
0.835025
0.803546
0.774285
0.746977
0.72117
0.696751
0.673725
0.651741
1.63246
1.50691
1.39926
1.30633
1.22572
1.15544
1.09385
1.03952
0.990947
0.947023
0.906847
0.870054
0.836047
0.804686
0.775343
0.7478
0.72195
0.697498
0.674447
0.652439
1.73782
1.5834
1.49154
1.51148
3.48518
5.42655
1.69084
1.53516
1.40675
1.29915
1.23922
1.22515
1.67849
4.6471
5.63575
5.06937
4.34291
4.61811
4.36223
3.70577
1.61903
1.48401
1.36964
1.27153
1.19014
1.14077
1.31842
2.21534
14.5662
6.79264
5.31763
4.58373
2.79062
2.57969
1.93276
1.62035
1.48609
1.37217
1.27461
1.1925
1.13171
1.17326
1.42102
2.1849
4.57786
10.0494
2.61446
2.15261
1.83205
1.59641
1.4263
1.28389
1.16101
1.62185
1.48858
1.37539
1.27833
1.19581
1.13051
1.11278
1.21968
1.43074
1.63223
1.73087
1.61932
1.30435
1.2072
1.11606
1.03652
0.966354
0.904541
0.849533
0.801655
1.62322
1.4909
1.37841
1.28184
1.19929
1.13136
1.09018
1.10851
1.14044
1.15349
1.12514
1.07968
1.01822
0.963343
0.912087
0.865406
0.822981
0.784407
0.749079
0.716951
1.62445
1.493
1.38115
1.28505
1.20263
1.13375
1.0813
1.05989
1.05077
1.03771
1.00447
0.964834
0.919864
0.878701
0.840007
0.80369
0.770127
0.739039
0.710092
0.683211
1.62555
1.4949
1.38363
1.28797
1.20577
1.13631
1.07907
1.03939
1.00955
0.981607
0.947554
0.91205
0.874523
0.839327
0.806046
0.774359
0.744749
0.716988
0.690941
0.666509
1.62653
1.49658
1.38582
1.29056
1.20859
1.13884
1.07947
1.03212
0.99279
0.957493
0.921992
0.887114
0.853185
0.819353
0.788728
0.759462
0.731902
0.705822
0.681199
0.657947
1.62744
1.49817
1.38791
1.29302
1.21123
1.14128
1.08091
1.03022
0.986586
0.947629
0.91075
0.875317
0.842467
0.810485
0.780853
0.752504
0.725747
0.700378
0.676404
0.653676
1.62826
1.49959
1.38977
1.29523
1.21363
1.14348
1.08263
1.03024
0.984593
0.943729
0.90579
0.870193
0.837187
0.805617
0.77639
0.748543
0.722268
0.697339
0.673766
0.651358
1.62901
1.5009
1.39148
1.29724
1.21582
1.1456
1.08443
1.0311
0.984367
0.942371
0.903683
0.867937
0.834603
0.803237
0.774186
0.746601
0.720557
0.695846
0.672484
0.65024
1.6297
1.5021
1.39305
1.2991
1.2179
1.1476
1.08622
1.03236
0.984916
0.942175
0.902935
0.866866
0.833364
0.802025
0.772967
0.745525
0.719619
0.695054
0.671843
0.649717
1.63034
1.50322
1.3945
1.30083
1.21996
1.14948
1.08795
1.03378
0.985851
0.942621
0.90291
0.866561
0.832898
0.801551
0.772432
0.745135
0.719323
0.694854
0.671748
0.649703
1.63094
1.50426
1.39586
1.30242
1.22169
1.15119
1.08958
1.03529
0.98703
0.943457
0.90347
0.866961
0.833178
0.801788
0.772609
0.745342
0.719562
0.695142
0.672091
0.65009
1.6315
1.50524
1.39712
1.30389
1.22318
1.15279
1.09117
1.03678
0.988334
0.944529
0.904471
0.867791
0.833911
0.802486
0.773277
0.745999
0.720222
0.695821
0.672798
0.650823
1.63202
1.50616
1.39831
1.30526
1.22463
1.15431
1.09272
1.03831
0.989795
0.945887
0.905751
0.868982
0.835027
0.803541
0.774288
0.746982
0.721174
0.696754
0.673726
0.65174
1.63246
1.50691
1.39926
1.30634
1.22572
1.15545
1.09385
1.03952
0.990946
0.947021
0.906847
0.870054
0.83605
0.804697
0.775357
0.747808
0.721953
0.697496
0.674441
0.652431
1.73782
1.58339
1.4906
1.50411
3.4693
5.42721
1.69084
1.53515
1.40674
1.29889
1.23675
1.21897
1.67119
4.70326
6.34044
5.60013
4.42816
4.60945
4.29804
3.7291
1.61903
1.48401
1.36963
1.27151
1.19004
1.14021
1.31825
2.23699
12.3803
6.67543
5.12448
4.43454
2.78438
2.59711
1.95928
1.62035
1.48609
1.37217
1.27461
1.19249
1.13159
1.17292
1.42596
2.21261
4.64387
9.93166
2.61323
2.14797
1.82519
1.59176
1.42561
1.28643
1.16471
1.62185
1.48858
1.37539
1.27834
1.19581
1.13048
1.11257
1.22063
1.43548
1.63807
1.73171
1.60887
1.29265
1.19731
1.10875
1.03223
0.964754
0.904706
0.850558
0.802902
1.62322
1.4909
1.37841
1.28184
1.19929
1.13136
1.0901
1.10844
1.14002
1.15187
1.12252
1.07698
1.01593
0.961643
0.911075
0.86501
0.823019
0.784656
0.749397
0.717255
1.62445
1.493
1.38115
1.28505
1.20263
1.13376
1.08129
1.05978
1.05038
1.03689
1.00362
0.96414
0.919365
0.878446
0.839997
0.803775
0.770204
0.739091
0.710136
0.683267
1.62555
1.4949
1.38363
1.28797
1.20577
1.13633
1.07908
1.03936
1.00942
0.981359
0.947371
0.911944
0.874441
0.83933
0.806156
0.774489
0.744826
0.717007
0.690927
0.666494
1.62654
1.49659
1.38584
1.29058
1.20859
1.13885
1.07948
1.03211
0.992764
0.957437
0.921955
0.887108
0.853191
0.819376
0.788778
0.759508
0.731916
0.705808
0.681174
0.657928
1.62744
1.49817
1.38791
1.29303
1.21124
1.14128
1.08091
1.03022
0.986582
0.947611
0.910739
0.875309
0.842454
0.810487
0.780881
0.752538
0.725764
0.700375
0.676391
0.653665
1.62826
1.49959
1.38977
1.29523
1.21363
1.14348
1.08263
1.03024
0.984594
0.943723
0.905786
0.870195
0.837189
0.805622
0.776402
0.748554
0.72227
0.697333
0.673755
0.651351
1.62901
1.5009
1.39148
1.29724
1.21582
1.14561
1.08444
1.03111
0.984368
0.942367
0.903679
0.867938
0.834604
0.803235
0.774189
0.746608
0.720564
0.695849
0.672484
0.65024
1.6297
1.5021
1.39305
1.2991
1.2179
1.1476
1.08622
1.03236
0.984916
0.942171
0.902931
0.866865
0.833364
0.802024
0.77297
0.74553
0.719623
0.695056
0.671843
0.649717
1.63034
1.50322
1.3945
1.30083
1.21996
1.14948
1.08795
1.03378
0.985851
0.942619
0.902909
0.866563
0.832902
0.801547
0.77243
0.745139
0.719329
0.694859
0.67175
0.649703
1.63094
1.50426
1.39586
1.30242
1.2217
1.15119
1.08958
1.03529
0.987029
0.943455
0.903468
0.866961
0.833179
0.801786
0.77261
0.745347
0.719567
0.695145
0.672092
0.65009
1.6315
1.50524
1.39712
1.30389
1.22319
1.15279
1.09117
1.03678
0.988333
0.944527
0.904469
0.867789
0.833911
0.802484
0.773277
0.746003
0.720227
0.695824
0.6728
0.650823
1.63203
1.50616
1.39831
1.30526
1.22463
1.15431
1.09272
1.03831
0.989795
0.945886
0.90575
0.868982
0.835028
0.80354
0.774289
0.746986
0.721179
0.696758
0.673727
0.65174
1.63246
1.50691
1.39926
1.30634
1.22572
1.15545
1.09386
1.03952
0.990946
0.94702
0.906846
0.870054
0.836051
0.804704
0.775367
0.747817
0.721958
0.697496
0.674438
0.652426
1.73782
1.58338
1.49031
1.50089
3.4582
5.42708
1.69084
1.53515
1.40673
1.29873
1.23509
1.2142
1.66437
4.72993
7.0522
6.349
4.79298
4.70236
4.26309
3.76444
1.61902
1.484
1.36963
1.2715
1.18995
1.13966
1.31773
2.24946
10.9217
6.59169
4.95537
4.24261
2.75129
2.59635
1.98303
1.62035
1.48609
1.37217
1.27461
1.19248
1.13147
1.17263
1.42952
2.23268
4.69472
9.88098
2.61362
2.14436
1.81813
1.58596
1.42291
1.28735
1.16767
1.62185
1.48858
1.37539
1.27834
1.19582
1.13046
1.11242
1.22179
1.44059
1.6467
1.73887
1.60726
1.28509
1.1895
1.10185
1.02725
0.962086
0.903965
0.850972
0.803823
1.62322
1.4909
1.37841
1.28184
1.1993
1.13136
1.09004
1.10859
1.14026
1.15146
1.12099
1.07494
1.01394
0.959942
0.909899
0.864342
0.822804
0.784743
0.749627
0.717533
1.62445
1.493
1.38115
1.28506
1.20264
1.13377
1.08128
1.05974
1.05021
1.03637
1.00292
0.963459
0.918814
0.878092
0.839905
0.803814
0.770267
0.739135
0.710167
0.683313
1.62555
1.4949
1.38363
1.28797
1.20578
1.13634
1.07909
1.03934
1.00933
0.981155
0.947165
0.911804
0.874326
0.839276
0.806215
0.774603
0.744917
0.717049
0.690928
0.666486
1.62654
1.4966
1.38585
1.29059
1.2086
1.13885
1.07949
1.03211
0.992741
0.957385
0.921904
0.887081
0.853182
0.819385
0.788819
0.759559
0.731945
0.705807
0.681154
0.657909
1.62744
1.49817
1.38791
1.29303
1.21124
1.14128
1.08091
1.03022
0.98658
0.947596
0.910723
0.875298
0.84244
0.810481
0.780901
0.752573
0.725788
0.70038
0.676381
0.653653
1.62826
1.49959
1.38978
1.29523
1.21363
1.14349
1.08263
1.03024
0.984596
0.943719
0.905779
0.870193
0.837189
0.805625
0.776413
0.748568
0.722278
0.69733
0.673746