/*--------------------------------*- C++ -*----------------------------------*\
  =========                 |
  \\      /  F ield         | OpenFOAM: The Open Source CFD Toolbox
   \\    /   O peration     | Website:  https://openfoam.org
    \\  /    A nd           | Version:  10
     \\/     M anipulation  |
\*---------------------------------------------------------------------------*/
FoamFile
{
    format      ascii;
    class       volScalarField;
    location    "2000";
    object      p;
}
// * * * * * * * * * * * * * * * * * * * * * * * * * * * * * * * * * * * * * //

dimensions      [0 2 -2 0 0 0 0];

internalField   nonuniform List<scalar> 
55398
(
54.8865
44.648
50.6372
52.5705
57.746
69.528
48.6021
44.8913
48.4803
50.9472
56.3621
66.7511
81.8264
101.19
-49.6295
-34.3567
-14.507
1.05893
4.09689
2.08694
45.3437
44.1578
46.0987
48.9203
52.9111
59.0195
62.3454
54.7193
-46.8383
-50.7015
-32.791
-14.1567
-2.31044
-0.57387
0.238536
43.4257
42.5614
43.7381
45.5418
47.4622
48.6001
43.5137
22.3462
-101.524
-163.322
-76.474
-54.2778
-44.5935
-28.6582
-13.7013
-4.74956
-2.83663
-0.546619
41.3891
40.7385
41.1848
41.8679
41.8092
39.3048
28.7814
-10.0871
-88.961
-143.067
-184.192
-136.934
-82.5346
-55.2478
-43.3579
-28.9779
-15.7134
-7.15009
-4.32567
-1.32282
39.3346
38.7607
38.569
38.197
36.4937
31.3583
18.4397
-17.2096
-85.5719
-123.904
-141.617
-111.492
-73.1759
-55.0986
-42.4556
-29.4075
-17.3452
-9.13781
-5.35849
-1.92704
37.2769
36.708
35.9682
34.6529
31.5804
24.8254
10.546
-19.0557
-71.4254
-104.252
-116.167
-98.8898
-71.1199
-54.1804
-41.975
-29.8215
-18.6828
-10.7235
-6.17486
-2.43052
35.2601
34.6584
33.4513
31.338
27.2083
19.4434
4.96346
-20.5564
-61.72
-89.5385
-99.9819
-89.3689
-68.4244
-52.8022
-41.1321
-29.9333
-19.6319
-11.9498
-6.80416
-2.83135
33.3131
32.6419
31.0433
28.2998
23.4435
15.0974
0.869081
-21.4161
-54.0951
-77.7113
-87.4635
-80.6268
-64.7301
-51.0895
-40.2318
-29.9997
-20.3677
-12.9263
-7.29045
-3.16217
31.4852
30.7334
28.8157
25.5744
20.2079
11.5612
-2.06225
-21.7596
-48.2614
-68.4595
-77.284
-73.4079
-61.4815
-49.6362
-39.524
-30.0004
-20.8967
-13.6637
-7.65656
-3.4069
29.8093
28.993
26.8231
23.1939
17.462
8.72438
-4.26281
-21.8558
-43.8023
-61.103
-69.2235
-67.3098
-58.1942
-47.9736
-38.6191
-29.7964
-21.1985
-14.1905
-7.91432
-3.59097
28.2988
27.4231
25.0552
21.1333
15.1669
6.43716
-5.85002
-21.7134
-40.315
-55.308
-62.811
-62.1621
-55.2723
-46.5388
-37.8835
-29.6588
-21.4397
-14.6199
-8.12974
-3.73861
26.9703
26.0448
23.5248
19.3897
13.2794
4.65088
-7.00242
-21.4811
-37.5914
-50.7945
-57.709
-57.947
-52.7213
-45.1876
-37.1749
-29.4042
-21.5245
-14.8856
-8.25644
-3.8313
25.8399
24.8747
22.2407
17.9549
11.7746
3.26898
-7.83632
-21.2245
-35.4594
-47.3625
-53.7655
-54.5276
-50.5777
-44.0065
-36.5312
-29.1854
-21.5859
-15.1022
-8.37365
-3.91676
24.9201
23.9251
21.2084
16.8172
10.597
2.2289
-8.43205
-21.0126
-33.8383
-44.7193
-50.7124
-51.8699
-48.9022
-43.0433
-36.0107
-28.9865
-21.5923
-15.2308
-8.4359
-3.96205
24.221
23.2047
20.431
15.969
9.73273
1.46684
-8.85012
-20.7986
-32.7603
-42.7222
-48.4562
-50.0383
-47.6755
-42.3109
-35.615
-28.8244
-21.5889
-15.3257
-8.48932
-4.00411
23.7499
22.7201
19.9108
15.4068
9.16662
0.971456
-9.10211
-20.654
-32.0146
-41.53
-47.1872
-48.6467
-46.807
-41.7919
-35.3252
-28.7054
-21.5726
-15.3758
-8.51453
-4.02291
23.5132
22.4761
19.6496
15.1256
8.88054
0.72107
-9.2362
-20.6203
-31.6304
-40.9668
-46.5234
-47.8929
-46.4342
-41.557
-35.1862
-28.6443
-21.5652
-15.4035
-8.52982
-4.03568
54.7256
44.781
50.6367
52.4567
58.4867
70.1485
48.5362
44.8779
48.3666
50.9468
56.3828
66.5847
82.7776
105.155
-47.7665
-33.5242
-16.1141
1.80785
4.64052
4.68375
45.2932
44.0832
46.0034
48.8384
52.7264
58.7264
61.6784
55.0911
-49.3197
-48.0821
-32.6546
-15.1765
-1.41343
0.472485
1.17009
43.401
42.4807
43.6501
45.4673
47.3018
48.3742
43.0912
22.4474
-102.677
-159.302
-75.265
-50.6163
-43.2764
-28.619
-14.2273
-4.86347
-3.29523
-0.416576
41.3651
40.6623
41.1004
41.7911
41.6637
39.171
28.4523
-9.55289
-87.3915
-141.04
-178.941
-137.089
-77.4765
-54.5289
-42.8812
-28.9177
-16.0101
-7.40983
-4.48743
-1.26124
39.3133
38.6896
38.4904
38.1256
36.3729
31.2657
18.2356
-16.842
-84.7695
-122.979
-136.898
-111.71
-73.9227
-54.8437
-42.1337
-29.3151
-17.5382
-9.36748
-5.42257
-1.87598
37.2576
36.6429
35.897
34.6015
31.5106
24.8066
10.4456
-18.9268
-71.0481
-103.697
-115.339
-98.5292
-71.4008
-54.0718
-41.7299
-29.7337
-18.802
-10.9016
-6.19898
-2.40952
35.243
34.6015
33.3903
31.3006
27.2001
19.4385
4.95074
-20.4678
-61.412
-89.1445
-99.5385
-89.2053
-68.5367
-52.7859
-40.9782
-29.8758
-19.7009
-12.0681
-6.8104
-2.80138
33.3061
32.6171
31.0185
28.2836
23.4447
15.114
0.879318
-21.3505
-53.9563
-77.4438
-87.1422
-80.5069
-64.8079
-51.1194
-40.1829
-29.9519
-20.4068
-13.007
-7.29029
-3.12318
31.4853
30.7359
28.8209
25.5813
20.2123
11.572
-2.0389
-21.7242
-48.1872
-68.2867
-77.0559
-73.2963
-61.5114
-49.6575
-39.4741
-29.9619
-20.914
-13.7166
-7.6422
-3.3705
29.8095
28.996
26.8285
23.1998
17.4681
8.73703
-4.23148
-21.8255
-43.7491
-61.0192
-69.0865
-67.1917
-58.2049
-47.9998
-38.5943
-29.7783
-21.1987
-14.2261
-7.89976
-3.55925
28.2987
27.4252
25.0594
21.138
15.1712
6.4462
-5.81921
-21.697
-40.2952
-55.2618
-62.7319
-62.0815
-55.2372
-46.5873
-37.862
-29.6426
-21.4391
-14.6421
-8.11638
-3.71218
26.9703
26.0463
23.5281
19.3938
13.2837
4.66216
-6.98399
-21.4733
-37.5771
-50.7555
-57.6568
-57.9008
-52.6899
-45.2213
-37.1867
-29.395
-21.5225
-14.9001
-8.24558
-3.81092
25.8402
24.876
22.2433
17.9584
11.7769
3.28171
-7.82407
-21.2185
-35.4445
-47.3332
-53.7315
-54.5007
-50.5554
-44.0218
-36.5348
-29.1823
-21.5831
-15.1116
-8.36492
-3.90065
24.9202
23.926
21.2103
16.8199
10.602
2.23825
-8.42412
-21.0091
-33.8307
-44.6995
-50.6933
-51.8563
-48.891
-43.0478
-36.0116
-28.9832
-21.5902
-15.2373
-8.42971
-3.95007
24.2211
23.2054
20.4325
15.9712
9.73874
1.47055
-8.84537
-20.7969
-32.7565
-42.7109
-48.4473
-50.031
-47.6701
-42.313
-35.6101
-28.8212
-21.5864
-15.3298
-8.48528
-3.99556
23.7503
22.7205
19.9118
15.4082
9.16778
0.97371
-9.10166
-20.6549
-32.0139
-41.5259
-47.1859
-48.6442
-46.8035
-41.7918
-35.3217
-28.7001
-21.571
-15.3793
-8.51257
-4.01738
23.5137
22.4763
19.6501
15.1259
8.88084
0.720673
-9.23794
-20.6224
-31.6315
-40.9657
-46.5245
-47.8928
-46.4327
-41.5552
-35.1846
-28.6399
-21.5647
-15.4059
-8.52793
-4.03165
54.755
44.8639
50.6302
52.1611
58.0929
70.3178
48.5384
44.9035
48.347
50.8393
56.241
66.3051
80.8254
100.914
-45.8283
-32.5353
-16.9726
-0.451556
4.51832
3.46131
45.2798
44.0594
45.9578
48.7389
52.5764
58.3547
59.9482
51.8178
-51.8487
-45.8457
-31.6297
-15.9913
-3.02891
-0.591681
0.737054
43.3845
42.4364
43.5932
45.3427
47.1146
48.0259
41.9729
21.3735
-101.438
-159.484
-74.832
-52.6448
-42.3146
-28.2391
-14.6471
-5.75857
-3.83384
-0.635332
41.3488
40.6164
41.0449
41.6736
41.4944
38.8961
27.6634
-9.43377
-86.1123
-140.576
-177.24
-135.647
-77.419
-55.2678
-42.4716
-28.6672
-16.2533
-7.88895
-4.79307
-1.40341
39.2988
38.6465
38.4381
38.0208
36.2307
31.0519
17.7972
-16.8314
-84.2132
-122.562
-135.822
-111.231
-73.6919
-54.8085
-41.8652
-29.1166
-17.6961
-9.683
-5.62049
-2.01174
37.2445
36.6042
35.8504
34.513
31.4036
24.6558
10.2461
-18.8207
-70.5474
-103.199
-114.964
-98.0799
-71.3593
-53.9895
-41.5579
-29.6239
-18.9063
-11.1063
-6.31271
-2.51619
35.2324
34.569
33.3511
31.2317
27.1219
19.4203
4.87531
-20.3331
-61.0452
-88.7632
-99.3208
-89.0503
-68.5756
-52.8053
-40.9172
-29.8199
-19.7667
-12.1946
-6.86378
-2.88388
33.2986
32.5953
30.9909
28.2329
23.3862
15.0909
0.894159
-21.2555
-53.6975
-77.1766
-86.9113
-80.3395
-64.8199
-51.1247
-40.1304
-29.9182
-20.4472
-13.0867
-7.31463
-3.18302
31.4803
30.7243
28.8045
25.543
20.168
11.5536
-2.04254
-21.6534
-48.0176
-68.1017
-76.8797
-73.1387
-61.4655
-49.6497
-39.4316
-29.9367
-20.9354
-13.7652
-7.65575
-3.40976
29.8061
28.9882
26.8163
23.1697
17.4345
8.70381
-4.21627
-21.7592
-43.6688
-60.9007
-68.9658
-67.0578
-58.1368
-47.989
-38.5674
-29.7671
-21.2139
-14.2578
-7.90787
-3.58542
28.2961
27.4195
25.0504
21.1158
15.1464
6.43524
-5.8158
-21.664
-40.2444
-55.1915
-62.6579
-61.9822
-55.179
-46.5421
-37.8447
-29.6405
-21.4461
-14.6589
-8.11882
-3.72956
26.9685
26.0422
23.5217
19.3779
13.2674
4.65562
-6.97352
-21.4482
-37.5411
-50.7107
-57.6097
-57.832
-52.6519
-45.1874
-37.1454
-29.3928
-21.5255
-14.9098
-8.24721
-3.82321
25.8388
24.8731
22.2391
17.9475
11.7659
3.2835
-7.81098
-21.1987
-35.4204
-47.3033
-53.7022
-54.4655
-50.5332
-44.0178
-36.503
-29.1775
-21.5821
-15.1159
-8.36458
-3.90836
24.9194
23.9241
21.2079
16.8135
10.6011
2.24306
-8.40898
-20.9937
-33.8161
-44.6807
-50.6759
-51.8386
-48.8889
-43.0489
-36.011
-28.9792
-21.5889
-15.2401
-8.42939
-3.95533
24.2207
23.2044
20.4314
15.9683
9.73823
1.47827
-8.83215
-20.7855
-32.7471
-42.6998
-48.4392
-50.0217
-47.6691
-42.3155
-35.6078
-28.8162
-21.5835
-15.3311
-8.48492
-3.99865
23.7502
22.7201
19.9116
15.4074
9.16893
0.979712
-9.09239
-20.6473
-32.0082
-41.52
-47.1831
-48.6405
-46.8039
-41.7937
-35.3161
-28.6968
-21.5685
-15.3805
-8.51228
-4.01881
23.5136
22.4763
19.6505
15.1266
8.88302
0.72474
-9.23249
-20.6182
-31.6288
-40.9628
-46.5242
-47.8918
-46.4339
-41.5553
-35.1803
-28.636
-21.5646
-15.4083
-8.52936
-4.03337
54.777
44.8886
50.608
52.0532
58.1331
70.3787
48.548
44.9157
48.3448
50.8032
56.2464
66.3559
80.8008
101.226
-43.9868
-31.0345
-17.2616
-1.26345
3.8192
3.5106
45.2907
44.0677
45.9705
48.7292
52.5805
58.3472
59.7792
52.3396
-59.0942
-44.0451
-30.2196
-16.323
-4.10866
-1.02811
0.649084
43.3903
42.4457
43.6101
45.339
47.1167
48.0537
41.8469
21.7634
-101.731
-159.923
-76.2103
-54.0949
-40.9296
-27.4413
-14.8882
-6.52007
-4.14076
-0.642604
41.3532
40.6236
41.0614
41.6735
41.4979
38.9154
27.5412
-9.35571
-86.3657
-140.854
-176.868
-135.032
-77.3597
-56.0695
-41.7542
-28.1429
-16.3788
-8.35967
-4.98277
-1.44158
39.3028
38.6525
38.4532
38.0211
36.2338
31.0607
17.7303
-16.8094
-84.286
-122.67
-135.679
-111.304
-73.5664
-54.9962
-41.5181
-28.7718
-17.7769
-9.99655
-5.75116
-2.06605
37.2479
36.6095
35.8642
34.5121
31.4048
24.6651
10.2283
-18.8066
-70.5398
-103.252
-115.192
-98.1696
-71.1391
-54.0332
-41.4557
-29.4425
-18.9625
-11.3123
-6.40479
-2.55335
35.2354
34.5734
33.3621
31.2299
27.1193
19.414
4.88742
-20.3148
-61.0333
-88.7925
-99.4115
-89.1529
-68.406
-52.7665
-40.8639
-29.7102
-19.797
-12.3461
-6.92511
-2.91468
33.3002
32.5968
30.9958
28.2285
23.3787
15.0843
0.898699
-21.2565
-53.6825
-77.1909
-86.9374
-80.3719
-64.7167
-51.0471
-40.0906
-29.8554
-20.468
-13.1922
-7.35603
-3.20897
31.4805
30.7231
28.8042
25.5355
20.1591
11.5563
-2.04612
-21.6534
-47.9998
-68.1018
-76.8926
-73.1404
-61.3959
-49.6079
-39.4015
-29.9017
-20.9482
-13.8366
-7.68387
-3.42889
29.8059
28.9865
26.8147
23.1624
17.4265
8.71028
-4.22093
-21.7616
-43.6568
-60.8944
-68.9728
-67.0581
-58.0681
-47.9555
-38.5421
-29.7469
-21.2235
-14.3073
-7.92747
-3.59827
28.2961
27.4181
25.049
21.1101
15.1408
6.43854
-5.81987
-21.6639
-40.2382
-55.1864
-62.6592
-61.9731
-55.1605
-46.4846
-37.8221
-29.6198
-21.4496
-14.6926
-8.13228
-3.73696
26.9683
26.0411
23.5207
19.3735
13.2642
4.65466
-6.97534
-21.4445
-37.535
-50.7074
-57.6089
-57.8242
-52.6419
-45.137
-37.1057
-29.382
-21.527
-14.9339
-8.25721
-3.82744
25.8385
24.8723
22.2383
17.9442
11.7664
3.28246
-7.81141
-21.1964
-35.4166
-47.3013
-53.7022
-54.459
-50.5273
-43.9741
-36.4818
-29.1734
-21.5828
-15.1327
-8.37165
-3.91079
24.9193
23.9235
21.2074
16.8115
10.6021
2.24384
-8.40728
-20.9914
-33.814
-44.6796
-50.676
-51.8366
-48.8842
-43.0187
-35.9917
-28.976
-21.5887
-15.2525
-8.43482
-3.95695
24.2206
23.204
20.431
15.9673
9.73759
1.47884
-8.83073
-20.7835
-32.7454
-42.6986
-48.4394
-50.0216
-47.6653
-42.2947
-35.5896
-28.8123
-21.5819
-15.34
-8.48868
-3.99964
23.7499
22.7199
19.9113
15.4068
9.16832
0.980059
-9.09124
-20.6453
-32.0068
-41.5187
-47.1833
-48.641
-46.8032
-41.7818
-35.3022
-28.6944
-21.5667
-15.387
-8.51477
-4.01934
23.5134
22.4762
19.6504
15.1263
8.88259
0.724919
-9.23182
-20.6167
-31.628
-40.9617
-46.5244
-47.8917
-46.4348
-41.5513
-35.172
-28.6339
-21.5644
-15.4147
-8.53204
-4.03394
54.7805
44.8933
50.5912
52.028
58.1318
70.4138
48.5505
44.9247
48.3396
50.778
56.2476
66.3724
80.7444
101.531
-42.843
-29.129
-16.9649
-2.34254
3.41356
3.33857
45.3001
44.07
45.9818
48.7332
52.6018
58.425
59.871
52.355
-64.562
-42.2508
-28.5333
-16.1758
-4.47187
-1.18468
0.736963
43.3964
42.4542
43.6265
45.355
47.144
48.1534
41.9363
21.8624
-101.792
-160.026
-79.8069
-55.3528
-39.8667
-26.4097
-14.9044
-6.8303
-4.28579
-0.568324
41.3594
40.6326
41.0777
41.6922
41.5244
38.9974
27.5812
-9.32292
-86.3398
-140.873
-176.528
-134.824
-77.5409
-56.7374
-41.1873
-27.5118
-16.3328
-8.56818
-5.03664
-1.42744
39.3085
38.6607
38.4683
38.0381
36.2565
31.1203
17.7547
-16.7822
-84.3789
-122.771
-135.77
-111.538
-73.7256
-55.2934
-41.2464
-28.3738
-17.7332
-10.1372
-5.79023
-2.06715
37.2528
36.6165
35.8774
34.5265
31.4232
24.7076
10.2463
-18.8077
-70.6143
-103.342
-115.387
-98.3501
-70.9798
-54.2053
-41.3301
-29.2105
-18.9302
-11.4027
-6.4206
-2.54897
35.2394
34.579
33.3728
31.2412
27.1332
19.4341
4.89501
-20.329
-61.0912
-88.8744
-99.4609
-89.3181
-68.2967
-52.7676
-40.7864
-29.5658
-19.767
-12.4004
-6.9294
-2.91276
33.3031
32.6005
31.0033
28.2365
23.3875
15.095
0.897738
-21.2777
-53.7245
-77.2484
-86.9853
-80.4815
-64.6492
-51.0198
-40.0542
-29.7757
-20.4492
-13.2277
-7.35684
-3.20694
31.4823
30.7251
28.809
25.5411
20.1651
11.566
-2.04726
-21.6684
-48.026
-68.1382
-76.927
-73.229
-61.3632
-49.6138
-39.3803
-29.8572
-20.9339
-13.8582
-7.68214
-3.4271
29.8069
28.9878
26.8181
23.1664
17.4308
8.71919
-4.22115
-21.7719
-43.6708
-60.9165
-68.9987
-67.1069
-58.0524
-47.9468
-38.5257
-29.7236
-21.2152
-14.3221
-7.92625
-3.59716
28.2966
27.4189
25.0515
21.1129
15.1441
6.44452
-5.82065
-21.6714
-40.2479
-55.2003
-62.6747
-62.0039
-55.1578
-46.4726
-37.8045
-29.6028
-21.4424
-14.7024
-8.13142
-3.7356
26.9688
26.0416
23.5225
19.3753
13.2665
4.65695
-6.97738
-21.449
-37.5396
-50.7155
-57.6174
-57.8453
-52.6421
-45.1128
-37.0889
-29.3725
-21.5222
-14.9412
-8.2574
-3.82624
25.8387
24.8725
22.2396
17.9452
11.7687
3.28364
-7.81344
-21.2004
-35.42
-47.3064
-53.708
-54.4702
-50.5278
-43.9359
-36.4732
-29.1645
-21.5787
-15.1378
-8.37198
-3.90924
24.9195
23.9237
21.2082
16.8122
10.6036
2.24393
-8.40889
-20.9941
-33.8161
-44.6829
-50.6794
-51.8438
-48.8846
-42.9969
-35.9708
-28.9695
-21.5856
-15.2566
-8.43593
-3.95554
24.2207
23.2041
20.4314
15.9676
9.7378
1.47768
-8.83279
-20.7857
-32.7468
-42.7001
-48.4415
-50.0261
-47.6658
-42.2804
-35.5785
-28.8091
-21.5793
-15.3429
-8.48978
-3.99828
23.7499
22.7199
19.9115
15.4068
9.16796
0.978983
-9.09272
-20.6467
-32.0076
-41.5193
-47.1846
-48.6437
-46.8047
-41.7728
-35.2966
-28.6928
-21.5642
-15.3892
-8.5161
-4.01831
23.5134
22.4761
19.6503
15.1261
8.88196
0.723968
-9.23301
-20.6175
-31.6285
-40.9618
-46.5252
-47.8932
-46.4369
-41.5492
-35.1675
-28.6337
-21.5623
-15.4165
-8.53341
-4.03313
54.7854
44.8961
50.5842
52.0366
58.1435
70.4981
48.5544
44.9293
48.3338
50.7702
56.2596
66.3906
80.7529
101.65
-42.8482
-26.8758
-15.9864
-3.41716
2.85919
3.03925
45.3035
44.0667
45.9812
48.7307
52.6028
58.4441
59.831
52.344
-67.5442
-41.38
-26.2291
-15.4286
-4.70834
-1.55743
0.803153
43.3981
42.453
43.6269
45.3559
47.1428
48.1804
41.8932
21.8363
-101.762
-159.91
-83.2861
-56.8172
-39.5873
-25.2622
-14.549
-7.02985
-4.48446
-0.533688
41.3619
40.6319
41.0785
41.6944
41.5231
39.0215
27.5465
-9.34188
-86.3234
-140.85
-176.288
-134.653
-77.7293
-57.4618
-41.0273
-26.8443
-16.1128
-8.671
-5.11517
-1.43311
39.3106
38.6602
38.4695
38.0406
36.2557
31.1386
17.7334
-16.7857
-84.3721
-122.737
-135.729
-111.591
-73.9288
-55.6508
-41.1684
-27.9833
-17.5947
-10.1955
-5.83697
-2.0789
37.2545
36.616
35.8786
34.5288
31.4237
24.7214
10.2351
-18.8137
-70.6156
-103.331
-115.359
-98.4282
-71.0268
-54.3734
-41.2928
-28.9804
-18.842
-11.4343
-6.43526
-2.55559
35.2409
34.5785
33.3739
31.2433
27.1351
19.4424
4.88549
-20.3385
-61.0978
-88.8837
-99.4049
-89.4037
-68.2986
-52.8623
-40.775
-29.4279
-19.7067
-12.4146
-6.93014
-2.91835
33.3046
32.6004
31.0049
28.2386
23.3891
15.1004
0.892354
-21.2877
-53.7342
-77.2584
-86.971
-80.5609
-64.6069
-51.0682
-40.0516
-29.699
-20.4118
-13.2342
-7.35301
-3.20931
31.4836
30.7255
28.8111
25.5435
20.1665
11.5703
-2.04959
-21.6747
-48.0331
-68.1485
-76.9145
-73.2979
-61.3542
-49.6558
-39.3823
-29.814
-20.9092
-13.8602
-7.67639
-3.42737
29.8079
28.9883
26.82
23.1685
17.432
8.72139
-4.22222
-21.7749
-43.6758
-60.9243
-68.9957
-67.1473
-58.0474
-47.9613
-38.5239
-29.7007
-21.2006
-14.3227
-7.92077
-3.5966
28.2972
27.4193
25.0529
21.1145
15.145
6.44642
-5.82131
-21.6744
-40.2521
-55.2063
-62.6728
-62.0309
-55.1542
-46.4844
-37.8059
-29.5917
-21.4325
-14.7014
-8.12641
-3.73448
26.9692
26.0419
23.5235
19.3763
13.267
4.65784
-6.97821
-21.4511
-37.5413
-50.7191
-57.6157
-57.8633
-52.6402
-45.1182
-37.0887
-29.3672
-21.5168
-14.9406
-8.25363
-3.82508
25.8391
24.8727
22.2403
17.9457
11.7689
3.28434
-7.81372
-21.2021
-35.4214
-47.3087
-53.7074
-54.4801
-50.527
-43.9383
-36.4708
-29.1595
-21.5748
-15.137
-8.36909
-3.90774
24.9197
23.9238
21.2086
16.8125
10.6038
2.24409
-8.40917
-20.9954
-33.8167
-44.6843
-50.6788
-51.8497
-48.8856
-42.9919
-35.9671
-28.9668
-21.5833
-15.2563
-8.43398
-3.95421
24.2208
23.2041
20.4317
15.9678
9.73774
1.47725
-8.83344
-20.787
-32.7472
-42.7006
-48.4415
-50.0296
-47.6668
-42.2734
-35.5775
-28.8079
-21.5776
-15.3426
-8.48826
-3.99706
23.75
22.7199
19.9116
15.4068
9.16778
0.978612
-9.09318
-20.6475
-32.0079
-41.5194
-47.1847
-48.646
-46.8059
-41.7651
-35.2961
-28.6915
-21.5628
-15.3891
-8.51524
-4.01741
23.5134
22.4761
19.6504
15.126
8.88172
0.723504
-9.23371
-20.6182
-31.6287
-40.9619
-46.5254
-47.8949
-46.4385
-41.544
-35.1645
-28.6327
-21.5604
-15.4163
-8.533
-4.03236
54.7893
44.8971
50.58
52.0299
58.1627
70.557
48.5571
44.9301
48.3281
50.7666
56.2692
66.4004
80.7453
101.578
-44.2501
-24.6895
-14.3206
-4.25456
2.20029
2.67019
45.3042
44.0652
45.9774
48.7286
52.5999
58.4397
59.782
52.3171
-68.4458
-42.6648
-23.7678
-14.041
-4.87487
-1.99769
0.840363
43.398
42.4517
43.6247
45.354
47.1357
48.179
41.8361
21.8092
-101.705
-159.865
-84.35
-58.4102
-39.9641
-24.114
-13.7898
-7.18844
-4.71413
-0.511261
41.3628
40.6308
41.077
41.6928
41.5155
39.0214
27.5016
-9.36037
-86.2747
-140.779
-176.174
-134.452
-77.7611
-58.1095
-41.2453
-26.183
-15.7059
-8.72026
-5.22527
-1.44551
39.3112
38.6592
38.4688
38.0396
36.2494
31.1391
17.7026
-16.7937
-84.3499
-122.676
-135.666
-111.543
-74.0263
-55.9721
-41.2824
-27.6103
-17.3575
-10.2076
-5.90329
-2.09721
37.255
36.6152
35.8782
34.5281
31.4192
24.7225
10.2171
-18.8173
-70.6023
-103.304
-115.286
-98.4682
-71.0588
-54.5281
-41.3594
-28.773
-18.7017
-11.4326
-6.46393
-2.56999
35.2416
34.5778
33.3738
31.2428
27.1323
19.4433
4.87383
-20.3424
-61.0861
-88.878
-99.3352
-89.4359
-68.3196
-52.961
-40.8206
-29.3113
-19.621
-12.4086
-6.94319
-2.93164
33.3052
32.5999
31.0049
28.2383
23.387
15.1006
0.886385
-21.2913
-53.7297
-77.2529
-86.9316
-80.6153
-64.6003
-51.1171
-40.0719
-29.6323
-20.3601
-13.2288
-7.35788
-3.21817
31.4842
30.7253
28.8113
25.5433
20.1648
11.5705
-2.05278
-21.6776
-48.0302
-68.1482
-76.8782
-73.3415
-61.3526
-49.6923
-39.3978
-29.7772
-20.8775
-13.8547
-7.67691
-3.43292
29.8086
28.9881
26.8202
23.1682
17.4306
8.72114
-4.22429
-21.7769
-43.6748
-60.9237
-68.975
-67.1769
-58.0411
-47.9742
-38.5286
-29.6789
-21.1813
-14.3191
-7.91948
-3.5998
28.2976
27.4191
25.0531
21.1142
15.144
6.44642
-5.82239
-21.6759
-40.2522
-55.2074
-62.6581
-62.0527
-55.149
-46.4946
-37.8115
-29.5812
-21.4207
-14.6979
-8.12407
-3.73603
26.9695
26.0418
23.5236
19.376
13.2662
4.6576
-6.97901
-21.4521
-37.5406
-50.7198
-57.6058
-57.8778
-52.6378
-45.1243
-37.0901
-29.3612
-21.5103
-14.9387
-8.25141
-3.82574
25.8393
24.8726
22.2404
17.9455
11.7684
3.28427
-7.81398
-21.2027
-35.4212
-47.3091
-53.7015
-54.4887
-50.5266
-43.9425
-36.4728
-29.1566
-21.5707
-15.1351
-8.36668
-3.90774
24.9198
23.9237
21.2087
16.8123
10.6035
2.24408
-8.40913
-20.9957
-33.8161
-44.6847
-50.6748
-51.8549
-48.8868
-42.9924
-35.9683
-28.965
-21.5809
-15.2551
-8.43204
-3.95399
24.2208
23.2041
20.4317
15.9676
9.73744
1.47709
-8.83349
-20.7873
-32.7469
-42.7005
-48.4396
-50.0325
-47.668
-42.2717
-35.5792
-28.8067
-21.5763
-15.3416
-8.48661
-3.99668
23.7501
22.7199
19.9116
15.4067
9.16758
0.978494
-9.0932
-20.6477
-32.0075
-41.5191
-47.1836
-48.6478
-46.8075
-41.762
-35.2971
-28.6897
-21.5615
-15.3884
-8.51404
-4.01704
23.5134
22.4761
19.6504
15.126
8.88158
0.723337
-9.23393
-20.6187
-31.6286
-40.9618
-46.5247
-47.8964
-46.4404
-41.5405
-35.164
-28.6314
-21.559
-15.4155
-8.53193
-4.03195
54.7913
44.8961
50.5761
52.0238
58.1765
70.5761
48.5588
44.929
48.3235
50.7643
56.2734
66.4064
80.7325
101.416
-46.9447
-22.9061
-12.2136
-4.63303
1.50249
2.31502
45.3041
44.0655
45.9744
48.7282
52.5996
58.4392
59.7634
52.2886
-68.5302
-45.6554
-21.6095
-12.115
-4.79393
-2.35474
0.8679
43.3981
42.4517
43.6238
45.354
47.1333
48.1827
41.8143
21.7946
-101.59
-159.865
-83.864
-59.6194
-40.9926
-23.1
-12.7535
-7.20554
-4.90753
-0.474395
41.3634
40.6308
41.0768
41.6927
41.5124
39.0248
27.4826
-9.36419
-86.2162
-140.718
-176.147
-134.349
-77.5902
-58.5507
-41.808
-25.6159
-15.1385
-8.69064
-5.32456
-1.43678
39.3119
38.6592
38.469
38.0398
36.2464
31.1418
17.6867
-16.7955
-84.3332
-122.633
-135.634
-111.477
-74.0108
-56.2028
-41.5767
-27.2952
-17.018
-10.1617
-5.96018
-2.10229
37.2555
36.6151
35.8786
34.5285
31.4168
24.7247
10.207
-18.8175
-70.5972
-103.29
-115.238
-98.484
-71.0534
-54.6305
-41.507
-28.6065
-18.5083
-11.3906
-6.48927
-2.57698
35.2421
34.5778
33.3743
31.2431
27.1305
19.4444
4.86729
-20.3448
-61.0782
-88.8782
-99.2956
-89.4532
-68.3265
-53.0174
-40.8981
-29.22
-19.5076
-12.373
-6.95381
-2.94027
33.3054
32.5998
31.0052
28.2384
23.3854
15.1008
0.882433
-21.2935
-53.7269
-77.2499
-86.8981
-80.6576
-64.6005
-51.1432
-40.105
-29.5794
-20.2923
-13.2039
-7.36235
-3.22439
31.4843
30.7252
28.8115
25.5431
20.1634
11.5707
-2.05511
-21.6797
-48.0276
-68.1512
-76.8437
-73.372
-61.352
-49.7093
-39.419
-29.7495
-20.838
-13.8366
-7.6767
-3.43751
29.8087
28.988
26.8203
23.1679
17.4295
8.72124
-4.22585
-21.7787
-43.6742
-60.925
-68.9518
-67.2036
-58.0379
-47.9781
-38.5356
-29.6607
-21.1564
-14.3072
-7.91842
-3.60293
28.2977
27.419
25.0531
21.1139
15.1431
6.4465
-5.82324
-21.677
-40.2522
-55.2099
-62.6398
-62.0742
-55.1453
-46.4982
-37.8169
-29.5721
-21.4062
-14.6896
-8.12203
-3.73778
26.9696
26.0417
23.5237
19.3757
13.2656
4.65745
-6.97977
-21.453
-37.5402
-50.7212
-57.5929
-57.8925
-52.6361
-45.1253
-37.0905
-29.3545
-21.5012
-14.9336
-8.24987
-3.82694
25.8394
24.8725
22.2404
17.9453
11.768
3.28416
-7.81437
-21.2033
-35.4212
-47.3102
-53.6929
-54.4984
-50.5266
-43.942
-36.4739
-29.1536
-21.5652
-15.1317
-8.36477
-3.9082
24.9198
23.9237
21.2087
16.8121
10.6032
2.24398
-8.40932
-20.9961
-33.8156
-44.6855
-50.6692
-51.8607
-48.8878
-42.992
-35.9688
-28.9624
-21.5775
-15.253
-8.43065
-3.95429
24.2208
23.204
20.4317
15.9675
9.73722
1.47691
-8.83369
-20.7877
-32.7467
-42.7006
-48.4367
-50.0358
-47.6691
-42.2711
-35.58
-28.8052
-21.5742
-15.34
-8.48526
-3.99669
23.7501
22.7198
19.9116
15.4066
9.1674
0.978346
-9.0933
-20.648
-32.0071
-41.5189
-47.1817
-48.6496
-46.809
-41.7611
-35.2983
-28.6884
-21.5596
-15.3871
-8.51305
-4.01698
23.5134
22.476
19.6504
15.1259
8.88141
0.72317
-9.23408
-20.6191
-31.6283
-40.9617
-46.5233
-47.8978
-46.442
-41.5387
-35.1649
-28.6305
-21.5575
-15.4144
-8.53087
-4.03174
54.792
44.8949
50.5728
52.0214
58.1836
70.5833
48.5588
44.927
48.3202
50.7633
56.2757
66.4061
80.7128
101.249
-50.7476
-21.5028
-10.1394
-4.26819
0.806337
1.98591
45.3039
44.0657
45.9718
48.7275
52.5993
58.4378
59.75
52.2471
-66.563
-49.8533
-20.4639
-10.2187
-4.32798
-2.52676
0.867767
43.3985
42.4515
43.6226
45.354
47.1319
48.1846
41.8029
21.7777
-101.472
-159.85
-82.8457
-60.0257
-42.7751
-22.3353
-11.7126
-6.96748
-4.99682
-0.448764
41.3637
40.6307
41.0763
41.6928
41.5106
39.0272
27.4739
-9.3651
-86.1652
-140.671
-176.137
-134.249
-77.3184
-58.7673
-42.686
-25.2074
-14.5189
-8.53589
-5.37883
-1.41895
39.3123
38.6591
38.4689
38.04
36.2447
31.1442
17.6791
-16.7951
-84.3125
-122.602
-135.618
-111.399
-73.9342
-56.3209
-42.0158
-27.0854
-16.6183
-10.0494
-5.9905
-2.09638
37.2561
36.6151
35.8787
34.5287
31.4153
24.7267
10.2015
-18.8167
-70.5916
-103.278
-115.203
-98.4679
-71.0301
-54.6758
-41.7165
-28.5032
-18.2777
-11.3083
-6.50226
-2.57446
35.2424
34.5778
33.3745
31.2433
27.1293
19.4456
4.86354
-20.3465
-61.0726
-88.8741
-99.2788
-89.447
-68.3243
-53.0425
-41.0044
-29.165
-19.3737
-12.3091
-6.9577
-2.94114
33.3057
32.5998
31.0054
28.2385
23.3844
15.1013
0.879782
-21.2946
-53.727
-77.246
-86.8717
-80.679
-64.5996
-51.1524
-40.1534
-29.5479
-20.213
-13.1592
-7.36304
-3.22542
31.4843
30.7251
28.8116
25.5432
20.1626
11.5711
-2.05672
-21.6809
-48.0269
-68.1557
-76.817
-73.3891
-61.3541
-49.714
-39.4463
-29.7341
-20.7919
-13.8061
-7.67442
-3.43853
29.8087
28.988
26.8204
23.1679
17.4289
8.72146
-4.22695
-21.7797
-43.6746
-60.9285
-68.9299
-67.2232
-58.0395
-47.9778
-38.5463
-29.6494
-21.1273
-14.2868
-7.916
-3.60385
28.2978
27.4189
25.0532
21.1139
15.1426
6.44667
-5.82388
-21.6778
-40.2524
-55.214
-62.6211
-62.0912
-55.1444
-46.4986
-37.8237
-29.5669
-21.3894
-14.6764
-8.11942
-3.73815
26.9696
26.0416
23.5237
19.3757
13.2653
4.65742
-6.98029
-21.4538
-37.5403
-50.7239
-57.5788
-57.9052
-52.6358
-45.1241
-37.0921
-29.3498
-21.4901
-14.9248
-8.24777
-3.82739
25.8394
24.8724
22.2404
17.9452
11.7677
3.2841
-7.81469
-21.2039
-35.4215
-47.3124
-53.6826
-54.5079
-50.527
-43.94
-36.4749
-29.1513
-21.5586
-15.126
-8.36284
-3.90822
24.9198
23.9236
21.2087
16.812
10.6031
2.2439
-8.40955
-20.9966
-33.8154
-44.6869
-50.6623
-51.8664
-48.8886
-42.9907
-35.9689
-28.9602
-21.5729
-15.2492
-8.42924
-3.95443
24.2208
23.2039
20.4317
15.9674
9.73706
1.47673
-8.83397
-20.7883
-32.7467
-42.7011
-48.4333
-50.039
-47.6699
-42.2698
-35.5801
-28.8039
-21.5712
-15.3376
-8.48407
-3.99661
23.75
22.7198
19.9116
15.4065
9.16724
0.978184
-9.09349
-20.6484
-32.0069
-41.5191
-47.1792
-48.6512
-46.8101
-41.7602
-35.2989
-28.6875
-21.5573
-15.3854
-8.51208
-4.01689
23.5134
22.476
19.6504
15.1258
8.88125
0.722989
-9.23423
-20.6195
-31.628
-40.9619
-46.5215
-47.8991
-46.4431
-41.5377
-35.1653
-28.6295
-21.5557
-15.413
-8.52986
-4.03154
54.7919
44.8937
50.5702
52.02
58.1863
70.5856
48.5586
44.9248
48.318
50.7618
56.2765
66.4022
80.6888
101.117
-55.0336
-20.6467
-8.28174
-3.17186
0.32725
1.66371
45.3035
44.0651
45.9696
48.7257
52.5975
58.4332
59.7332
52.2067
-62.3021
-54.8515
-20.0776
-8.45478
-3.61967
-2.46588
0.822107
43.3983
42.4507
43.621
45.353
47.1296
48.1826
41.7906
21.761
-101.377
-159.809
-82.0199
-59.5776
-45.1099
-21.9099
-10.8217
-6.57457
-4.92629
-0.438596
41.3634
40.6302
41.0751
41.6919
41.508
39.0264
27.4658
-9.3676
-86.1275
-140.635
-176.124
-134.138
-77.0637
-58.7576
-43.7678
-24.9874
-13.9389
-8.26659
-5.34402
-1.40437
39.3119
38.6587
38.4681
38.0394
36.2425
31.1442
17.6726
-16.7952
-84.2912
-122.571
-135.594
-111.307
-73.8452
-56.3183
-42.5316
-27.0151
-16.2274
-9.8691
-5.98287
-2.08511
37.256
36.6148
35.8782
34.5283
31.4135
24.727
10.1968
-18.8158
-70.5846
-103.262
-115.176
-98.4182
-70.9995
-54.672
-41.9665
-28.4787
-18.0431
-11.1918
-6.49921
-2.56364
35.2424
34.5775
33.3742
31.243
27.128
19.4457
4.86042
-20.3469
-61.0685
-88.8607
-99.2693
-89.4142
-68.3108
-53.0453
-41.1274
-29.1562
-19.2338
-12.2234
-6.95485
-2.93494
33.3058
32.5996
31.0052
28.2383
23.3834
15.1013
0.877583
-21.2938
-53.7278
-77.2381
-86.8507
-80.6749
-64.5985
-51.1511
-40.2123
-29.5417
-20.1302
-13.1006
-7.36047
-3.22162
31.4843
30.7249
28.8115
25.5431
20.1618
11.571
-2.05807
-21.6808
-48.0268
-68.1573
-76.7991
-73.3861
-61.3564
-49.7134
-39.4772
-29.733
-20.7437
-13.7671
-7.6711
-3.43607
29.8086
28.9879
26.8203
23.1679
17.4283
8.72138
-4.22791
-21.7797
-43.6755
-60.9318
-68.9105
-67.2292
-58.0423
-47.9759
-38.56
-29.6463
-21.0969
-14.2606
-7.91297
-3.60245
28.2977
27.4189
25.0532
21.1138
15.1422
6.44659
-5.82441
-21.6779
-40.2528
-55.2185
-62.6033
-62.0989
-55.1451
-46.497
-37.8315
-29.5664
-21.3721
-14.6601
-8.11681
-3.73701
26.9695
26.0415
23.5237
19.3756
13.265
4.65731
-6.98067
-21.4541
-37.5405
-50.7272
-57.5647
-57.9125
-52.6368
-45.1223
-37.0954
-29.3479
-21.4785
-14.9137
-8.24544
-3.82681
25.8394
24.8724
22.2404
17.9451
11.7675
3.28398
-7.81495
-21.2041
-35.4217
-47.3151
-53.6714
-54.5144
-50.5278
-43.9382
-36.4768
-29.1504
-21.5518
-15.1191
-8.36109
-3.90773
24.9198
23.9235
21.2087
16.8119
10.6029
2.24378
-8.40971
-20.997
-33.8152
-44.6887
-50.6547
-51.8702
-48.8892
-42.9894
-35.9696
-28.959
-21.568
-15.2445
-8.42773
-3.95419
24.2208
23.2039
20.4317
15.9673
9.7369
1.47658
-8.83417
-20.7886
-32.7468
-42.7018
-48.4292
-50.0411
-47.6705
-42.2685
-35.5804
-28.8031
-21.5681
-15.3347
-8.48294
-3.99629
23.75
22.7197
19.9116
15.4064
9.16709
0.978035
-9.0936
-20.6487
-32.0067
-41.5195
-47.1763
-48.6522
-46.8109
-41.7593
-35.2992
-28.6868
-21.5549
-15.3831
-8.51113
-4.01663
23.5134
22.4759
19.6503
15.1257
8.88111
0.722828
-9.23437
-20.6199
-31.6278
-40.9622
-46.5193
-47.9003
-46.4436
-41.5368
-35.1653
-28.6287
-21.5538
-15.4112
-8.52894
-4.03125
54.7914
44.8924
50.5679
52.0184
58.1858
70.5801
48.5577
44.9228
48.3161
50.7597
56.2743
66.3959
80.664
101.041
-59.2825
-20.4256
-6.78339
-1.82344
0.268941
1.2951
45.3029
44.0639
45.9676
48.7236
52.594
58.4264
59.7174
52.1717
-57.8506
-60.3736
-20.1329
-7.47222
-2.84764
-2.01826
0.771046
43.3975
42.4497
43.6193
45.3514
47.1265
48.1777
41.7796
21.7468
-101.309
-159.766
-81.6277
-58.64
-47.3823
-21.8437
-10.1753
-6.12907
-4.65805
-0.426439
41.3628
40.6294
41.0737
41.6905
41.5053
39.023
27.4589
-9.3702
-86.1007
-140.606
-176.102
-134.046
-76.8864
-58.5761
-44.8022
-24.9645
-13.4856
-7.89578
-5.20256
-1.38813
39.3112
38.658
38.467
38.0383
36.2402
31.142
17.6673
-16.795
-84.2758
-122.545
-135.565
-111.212
-73.7626
-56.2171
-43.0245
-27.0814
-15.9127
-9.6421
-5.92896
-2.06674
37.2553
36.6143
35.8774
34.5274
31.4115
24.7254
10.1928
-18.8148
-70.5783
-103.244
-115.161