/*--------------------------------*- C++ -*----------------------------------*\
  =========                 |
  \\      /  F ield         | OpenFOAM: The Open Source CFD Toolbox
   \\    /   O peration     | Website:  https://openfoam.org
    \\  /    A nd           | Version:  10
     \\/     M anipulation  |
\*---------------------------------------------------------------------------*/
FoamFile
{
    format      ascii;
    class       surfaceScalarField;
    location    "2000";
    object      phi;
}
// * * * * * * * * * * * * * * * * * * * * * * * * * * * * * * * * * * * * * //

dimensions      [0 3 -1 0 0 0 0];

internalField   nonuniform List<scalar> 
164653
(
-3.02503
34.2755
56.8583
2.95571
0.223255
-33.7682
33.6235
54.4711
0.11904
0.0836824
-0.0960193
-0.226532
0.00124547
-33.5203
33.2081
54.9344
0.609133
0.150773
-0.219869
-0.167716
-0.789114
-8.73186
8.83615
14.435
0.757667
-0.152123
-7.79989
7.55635
12.9304
0.351809
-5.13225
6.14098
0.173382
11.3008
-0.0765245
-18.3102
140.065
18.1613
233.651
7.61999
-139.609
138.844
-6.84548
231.009
1.01441
-137.76
137.432
-0.388986
229.528
-3.48316
-137.828
136.586
14.8791
231.363
-3.54181
-2.97864
-3.59223
-4.09043
-135.322
133.338
20.4712
230.87
-4.57851
-4.88274
-5.48728
-5.83105
-130.078
124.911
31.6918
226.587
-6.79872
-6.07139
-7.50957
-20.1539
81.5257
219.276
-12.6719
-21.9006
-13.8044
-112.203
27.8921
27.9297
28.5758
28.5988
-5.79193
-24.5364
26.0384
56.5301
-8.52978
-6.88561
-9.77376
5.98407
8.33486
8.46778
6.29241
-0.787501
1.0957
3.69466
-0.0492494
-0.402798
-1.6251
44.7883
0.691377
2.01457
0.66501
-1.88552
1.07914
-0.167505
-0.153897
0.228613
0.473334
-1.33446
7.91453
54.7733
-4.02622
0.474997
0.470333
0.502656
-1.30589
-1.47707
-1.51009
0.811788
-13.5548
15.7251
53.5399
-4.31529
0.905659
0.313285
0.318213
0.775491
-19.8154
20.7914
53.0075
-3.98406
0.722848
0.705117
0.574701
3.28486
-23.4107
23.8173
52.8456
-3.96988
574.37
2.64229
959.723
-18.1273
3.77911
-0.0883525
19.4421
568.755
-26.4824
952.048
6.27223
5.88466
12.5043
9.9037
569.403
13.0854
947.724
-0.361842
-10.5651
3.85857
-2.73756
563.336
51.5458
952.59
-15.5811
-18.0787
-2.7979
-8.05613
552.355
76.173
954.803
-22.3364
-25.9752
-11.1034
-8.80295
519.554
206.818
939.347
-35.893
-68.6971
-28.5942
-62.7668
127.205
307.63
948.128
127.435
125.757
129.067
-88.1651
-78.6751
-69.2959
-101.225
-31.3856
132.049
234.536
34.0023
32.3927
30.9045
33.9741
-36.2376
-33.3719
-40.629
-0.377604
0.0606573
2.83504
0.29702
3.33014
-67.4916
91.5386
-37.9491
164.346
3.51148
4.37914
5.65853
7.51991
-105.883
118.018
-40.2894
188.426
7.00979
7.57293
6.87598
34.0762
-127.234
133.601
-40.0453
211.461
19.0544
-130.865
141.301
-17.8704
211.946
25.7429
-144.886
146.952
-27.2602
233.822
11.6685
-148.181
148.662
-12.4809
233.727
582.751
2.86826
972.022
580.013
-21.7549
972.618
578.448
16.7276
970.224
575.406
55.2831
972.059
574.603
87.0639
970.274
568.225
222.405
971.799
149.334
269.497
986.21
159.127
139.53
154.758
-102.92
149.005
97.2946
234.569
-46.6243
-41.8029
45.9986
56.2692
42.6686
-14.9377
11.5775
3.11485
13.6306
0.177221
2.26782
-9.00103
39.1914
-11.1364
50.5892
2.62039
2.25777
2.58378
-9.0549
-9.80242
-9.93933
6.09433
-40.1371
163.611
-12.5089
217.788
-0.894601
5.56841
-0.327597
-41.2622
-41.2841
-42.5905
669.547
-217.558
884.682
44.6727
41.11
54.4874
51.3582
-147.648
-170.964
-147.049
-171.265
654.693
-177.8
929.312
41.5204
41.3469
52.8431
52.1959
654.37
-101.486
921.996
39.4467
15.0858
46.482
19.9001
634.907
-108.179
971.914
5.51252
25.9216
34.6962
48.3173
633.468
-58.2429
942.478
27.4033
17.6889
34.378
5.74768
-31.3657
970.398
12.5441
17.3965
5.41113
-0.939523
591.461
2.90828
986.595
590.049
-18.0886
987.934
589.702
19.3773
985.997
588.867
57.1659
987.363
587.849
88.4323
985.528
596.109
214.341
988.254
628.28
235.632
972.611
172.497
390.308
977.211
-104.092
-146.422
-107.472
-121.437
172.205
183.016
182.298
-144.183
186.168
133.1
238.609
-15.3417
199.78
56.3096
232.748
-14.6786
-15.6767
-14.1778
-196.459
-8.90508
-51.9734
53.0201
59.0011
7.85288
6.8823
-199.152
189.83
-7.88987
240.271
8.63949
-4.67631
-0.00781209
38.5285
-184.264
179.315
-33.9837
234.63
698.408
-131.583
950.127
15.8618
33.1345
25.0599
32.0142
-166.56
-171.669
-178.296
-174.077
689.073
-203.375
956.339
667.766
-146.067
953.07
641.651
-98.3904
961.412
649.689
-143.455
977.332
647.738
-55.1915
982.406
-32.7343
986.461
598.889
2.87976
999.029
598.418
-15.1135
1000.6
599.285
20.9882
998.967
600.592
57.1338
1000.14
603.364
86.3426
998.327
617.216
200.912
1001.16
648.62
203.43
988.274
735.363
301.647
987.683
771.829
241.881
989.164
-119.678
-69.4157
-66.8977
-29.7844
199.875
147.248
957.645
-52.6114
-44.0082
-34.0843
-32.0973
198.132
200.88
198.595
-14.6703
201.109
11.1586
244.003
746.974
-71.6507
1000.37
2.67187
27.7158
7.52574
44.1091
-197.597
-196.211
-197.602
-195.734
748.703
-60.1608
981.613
29.6173
12.5489
5.39375
9.78068
711.568
-71.9028
977.608
692.625
-186.823
980.939
678.917
-131.843
976.044
670.932
-87.529
981.469
659.987
-132.037
993.84
657.112
-51.3135
997.051
-41.1694
1000.75
605.333
2.80674
1009.81
605.573
-12.7074
1011.4
607.545
21.5801
1009.97
619.233
61.3226
1011.1
615.925
105.503
1008.88
645.877
194.014
1012.68
663.98
219.453
1002.38
713.05
253.476
1004.6
756.562
200.407
996.272
784.63
120.139
986.275
775.836
13.0318
980.511
-9.17414
5.7737
2.07314
10.9925
752.21
-43.5165
985.921
736.813
-44.378
990.326
737.284
-120.501
1038.02
697.834
-177.553
1026.71
684.646
-117.845
992.507
677.056
-77.4819
996.585
665.827
-120.826
1006.56
662.462
-47.3613
1008.78
-33.9271
1012.4
611.025
2.71665
1019.28
611.811
-10.6734
1020.79
614.713
21.3578
1019.52
617.818
57.9343
1020.63
632.095
101.475
1017.96
664.434
129.716
1052.05
668.158
176.751
1057.41
711.33
209.909
1014.55
747.972
166.193
1010.5
768.742
100.65
1002.79
765.027
16.1532
1006.42
751.579
-27.8734
1002.58
736.936
-31.3796
1004.3
725.347
-99.2288
1020.35
700.887
-121.569
998.363
688.639
-104.264
1006.66
681.541
-68.2214
1010.07
670.228
-109.74
1018.12
666.482
-43.3198
1019.75
-32.3166
1023.27
626.58
9.73374
1027.74
628.283
26.7558
1029.11
629.014
54.9531
1028.02
625.099
75.3564
1029.1
633.207
92.0861
1026.43
653.769
115.679
1012.14
680.672
156.27
1033.82
717.273
200.475
1024.72
740.589
161.816
1022.19
758.885
83.7653
1016.17
757.566
17.5191
1020.18
739.302
7.4647
1001.34
735.715
-17.3961
1005.23
712.937
-85.2806
1030.98
710.138
-103.297
1011.15
691.772
-74.9876
1018.45
685.185
-59.7365
1021.17
673.76
-98.6848
1027.81
679.254
-34.1415
1029.05
-6.52926
1032.41
619.305
8.81814
1035.4
621.232
24.4279
1036.63
625.386
49.9486
1035.71
631.399
68.0576
1036.78
640.148
82.1374
1034.33
661.141
100.513
1022.1
672.914
133.933
1042.68
703.111
168.127
1034.52
734.655
135.616
1032.06
750.587
69.3632
1027.01
751.254
17.1552
1030.96
747.698
12.0418
1026.74
734.952
-11.9796
1032.69
713.899
-72.3116
1039.75
704.658
-89.1282
1021.89
694.243
-64.6916
1028.5
688.076
-51.7786
1031.04
676.58
-87.6742
1036.73
671.669
-30.37
1037.6
-6.32152
1040.71
623.533
7.84607
1042.39
625.716
21.8336
1043.5
630.352
44.4451
1042.78
636.887
60.2266
1043.87
645.995
71.8543
1041.78
656.377
111.317
1020.31
677.243
128.059
1031.67
709.547
126.417
1051.41
737.241
112.7
1048.76
748.568
78.1303
1036.19
745.867
27.5332
1039.95
745.097
14.4758
1036.7
733.745
-6.14119
1042.13
715.297
-61.0944
1047.58
705.987
-75.9102
1032.38
704.158
-51.5408
1037.25
690.583
-26.3225
1039.78
679.079
-76.6775
1044.62
673.688
-26.5854
1045.31
-5.85233
1048.19
627.45
6.82585
1048.84
629.834
19.0493
1049.85
634.817
38.6172
1049.31
641.717
52.0257
1050.42
650.915
61.4749
1048.58
662.925
94.1295
1047.29
680.479
107.477
1050.39
704.617
103.45
1049.37
723.968
92.4197
1046.44
737.592
64.4102
1044.13
743.58
24.876
1047.71
744.527
20.8558
1045.42
732.609
3.56782
1050.53
703.634
-13.9901
1029.55
707.114
-56.5076
1022.62
698.31
-43.0412
1044.64
692.82
-21.7718
1047.64
681.302
-65.6513
1051.84
675.476
-22.7112
1052.39
-5.17168
1055.12
631.069
5.75067
1054.87
633.617
16.0691
1055.76
638.874
32.5099
1055.43
646.005
43.5696
1056.5
655.033
51.1835
1054.32
666.989
77.4127
1054.31
683.358
87.7304
1056.72
704.369
83.0241
1056.19
719.545
73.0037
1052.75
733.874
46.4014
1051.63
737.89
20.9795
1054.7
739.41
18.8896
1053.33
731.728
5.04881
1058.19
723.302
-9.94636
1058.44
707.621
-42.8498
1057.1
699.806
-34.8964
1048.74
694.775
-17.6171
1054.71
683.303
-54.6565
1058.59
677.15
-18.8625
1059.01
-4.38427
1061.55
634.474
4.63847
1060.51
637.122
12.9938
1061.29
642.591
26.2112
1061.15
649.81
35.0068
1062.08
651.399
49.2183
1053.59
670.545
55.6459
1054.85
686.073
68.8138
1062.88
704.596
64.5506
1062.27
721.086
56.3875
1059.06
731.424
36.1768
1058.43
735.597
17.0141
1060.95
746.214
-6.91031
1074.74
731.287
1.14702
1077.92
723.566
-6.85273
1065.33
710.595
-32.8713
1066.73
701.453
-27.5818
1055.95
696.73
-13.7484
1061.25
685.355
-43.6991
1064.79
678.822
-15.0292
1065.17
-3.50812
1067.59
637.653
3.50247
1065.85
640.39
9.82127
1066.5
645.998
19.7707
1066.56
653.297
26.3159
1067.44
662.441
36.2482
1067.12
674.155
38.2046
1068.9
688.728
50.9618
1068.88
705.619
47.1856
1067.92
720.455
41.3349
1065.08
730.348
26.3685
1064.72
735.188
12.4454
1066.66
733.185
-4.31581
1065.18
731.333
1.59219
1067.02
724.224
-4.46728
1071.67
712.136
-24.3598
1073.14
703.23
-20.3139
1062.76
698.711
-10.0759
1067.67
687.383
-32.7467
1070.65
680.534
-11.2008
1070.89
-2.6116
1073.25
640.671
2.3604
1070.9
643.467
6.58005
1071.44
649.181
13.2263
1071.72
656.564
17.577
1072.66
669.209
25.1599
1072.84
677.562
30.0329
1074.6
691.497
33.7029
1074.31
706.688
30.9831
1073.16
720.67
27.0544
1070.72
729.704
17.4478
1070.45
734.393
8.13915
1071.91
733.459
-2.73829
1070.95
731.985
1.39233
1073.31
725.275
-2.62817
1077.6
710.459
-17.9846
1077.95
705.127
-19.8909
1069.55
700.854
-6.57978
1073.78
689.596
-21.8322
1076.24
682.484
-7.42724
1076.35
-1.72729
1078.66
643.534
1.18228
1075.72
646.351
3.30591
1076.13
652.134
6.62978
1076.6
659.581
8.79564
1077.64
669.174
12.5646
1078.24
680.832
15.0456
1079.6
694.393
16.7571
1079.41
708.311
15.4838
1078.13
721.675
13.2745
1076.06
730.574
8.6689
1075.85
734.971
4.12925
1076.83
734.416
-1.47979
1076.36
733.067
0.834722
1079.17
726.627
-1.1939
1083.14
715.681
-10.1658
1082.23
707.112
-10.1161
1075.85
703.079
-3.26236
1079.58
691.905
-10.9333
1081.54
684.468
-3.71356
1081.62
-0.860215
1083.85
646.246
1080.31
649.077
1080.59
654.904
1081.25
662.386
1082.35
672.385
1083.35
684.081
1084.38
697.361
1084.19
710.701
1082.72
723.468
1081.01
732.259
1080.84
736.793
1081.32
736.07
1081.37
734.788
1084.62
728.477
1088.23
717.023
1084.83
709.287
1079.5
705.371
1084.7
694.213
1086.1
686.457
1086.08
1088.15
-56.6601
-0.513652
34.1751
0.437772
56.5499
-55.3341
1.88795
-34.0838
33.9734
-1.71041
55.267
-55.8019
0.722625
-33.9941
33.9161
-0.695585
55.8529
-51.5337
5.13772
-31.6382
30.3515
-3.47687
51.1596
-54.1281
-32.5619
29.7941
0.57053
51.8006
4.52474
-45.8874
-26.7033
25.3096
-0.757165
46.0741
1.96412
-0.362207
-233.421
139.991
0.518889
233.329
1.93577
-231.047
138.669
-1.06222
231.016
-139.511
-2.0852
-228.774
-137.521
136.609
3.53687
228.234
-2.5458
-230.411
-136.118
136.739
2.93939
229.396
-4.46581
-234.725
-138.544
136.176
5.73395
235.825
-17.119
-228.158
-131.065
125.338
23.6964
227.308
-223.784
-1.09936
114.758
20.1979
222.068
-1.87408
-3.76081
-4.66573
-121.839
-58.0375
-13.7633
-27.3738
27.8207
13.1713
58.1827
-17.9975
-3.70085
2.1386
17.5908
1.96899
-42.3398
1.9495
-0.786231
-3.57528
41.423
3.3288
-49.4572
5.605
-4.81249
7.3082
-7.04134
48.3978
-54.9812
2.88979
-12.2059
68.9442
-21.7704
209.693
3.90082
3.33154
3.88453
-16.0293
-11.9087
-15.9926
-52.2208
-54.5315
-53.0032
-54.1373
6.17004
-19.3859
21.7675
-8.14289
53.7286
-219.18
16.2052
-99.1605
102.408
-61.6005
220.186
14.3608
13.2325
13.5481
569.763
7.6496
955.395
-0.872697
3.56202
-1.77689
-2.20359
565.486
14.1187
952.521
0.492555
-1.53824
-4.01697
-5.25139
561.585
33.2035
947.735
-4.54795
-5.26677
-8.25274
-11.2462
558.264
41.1513
953.329
-3.51719
-5.92088
-13.5616
-15.5694
545.223
76.1114
954.392
-7.63809
-12.6177
-19.2366
-23.1665
530.779
144.424
939.027
-28.4732
-29.7656
-33.1494
-38.2716
147.048
208.507
922.91
145.837
150.122
139.538
-28.2739
-84.756
-52.8826
-69.1417
-240.978
-105.165
93.0057
249.354
41.2881
35.9967
35.9913
37.5543
-15.7682
-1.03651
-5.14085
19.1393
2.80623
27.0006
-68.9897
-164.77
91.4524
-49.4546
164.762
33.5925
-189.062
-107.242
120
-44.0363
186.748
41.5124
-211.736
-128.73
134.512
-46.4457
210.887
147.366
-223.701
931.873
29.2247
49.2464
54.6214
64.3906
-225.178
-228.429
-232.316
-234.238
-139.186
-152.672
-138.474
-152.506
151.372
147.844
150.763
48.8823
-232.369
147.463
-49.1925
232.581
-186.079
932.102
62.1125
45.3519
40.3541
41.5214
-235.199
-235.053
-236.714
-236.399
-146.208
-150.707
-147.286
-151.99
581.468
7.65387
971.86
579.084
16.8802
972.241
577.726
35.8031
968.982
575.368
44.9792
970.589
568.863
82.8546
970.035
576.917
147.583
960.588
155.318
201.349
946.753
166.221
148.473
153.519
-231.392
-83.8516
157.998
76.3352
236.229
-54.3409
-44.0091
-41.0222
48.3204
35.2334
55.8184
-49.6023
-48.6171
40.4104
4.25036
48.5995
4.95912
-49.0849
1.57498
-9.33483
39.2819
-7.87955
49.0398
1.37499
0.38364
-0.527767
-9.38696
-7.87123
-7.56998
644.276
-252.952
925.599
-146.912
-170.18
-145.423
-162.89
57.5904
69.5958
48.9454
47.1009
-229.453
-220.289
-232.339
-232.668
662.104
-238.248
921.88
57.0202
42.8793
44.4436
38.8775
648.37
-165.217
929.537
45.7565
51.4125
39.9133
41.6448
655.081
-134.516
922.406
45.8987
13.5416
39.2862
28.6686
639.4
-191.926
955.819
619.505
-171.963
959.069
49.9163
41.6311
49.21
34.5088
-189.456
961.254
590.108
7.42005
986.314
589.064
18.3188
987.539
588.854
37.2885
984.722
588.452
47.2684
985.476
587.887
84.3074
984.641
603.748
143.118
976.857
639.141
172.982
965.584
182.393
302.559
982.635
-87.1502
-94.5881
-97.5207
-109.525
181.357
178.494
177.698
-92.7572
195.306
77.5611
244.171
-241.889
-232.699
-39.3935
-197.568
197.908
38.689
233.063
-229.474
0.628202
202.095
-0.501264
226.81
3.87247
-2.37725
0.37386
-201.426
6.0464
-199.772
-232.081
194.541
-2.7321
227.039
2.72352
4.9602
-0.724786
688.087
-127.315
926.965
25.8181
45.256
52.483
88.0461
-187.544
-188.423
-186.415
-186.987
-236.534
-235.871
-238.988
-238.579
675.875
-199.383
908.77
682.661
-222.762
934.068
667.568
-152.357
955.304
658.716
-122.345
958.092
650.348
-179.395
973.169
641.442
-161.486
980.836
-180.626
976.45
597.503
7.0787
998.706
597.383
18.8363
1000.2
598.341
37.6304
997.667
599.973
47.7057
998.073
603.303
82.2862
997.018
624.64
134.556
988.388
661.002
144.056
980.838
716.942
245.309
988.994
760.988
203.318
985.886
-64.5714
-36.8227
-83.6884
-59.003
786.459
130.098
962.043
-36.2048
-34.7883
-47.459
-41.5143
777.343
5.15779
966.454
1.23017
11.7169
-11.8989
4.94901
-243.801
-240.566
-244.587
-239.539
756.122
-64.7483
985.675
-2.11359
40.4827
8.32998
53.9687
726.41
-87.8311
971.842
695.027
-183.786
993.395
691.978
-206.401
967.625
677.697
-138.816
976.784
669.255
-110.687
978.253
660.16
-165.953
989.494
650.817
-150.289
995.195
-170.48
990.721
603.942
6.68423
1009.46
604.504
18.7126
1010.96
606.54
36.9432
1008.63
609.823
46.6489
1008.88
615.943
77.9265
1007.12
642.841
124.146
996.188
672.695
118.443
998.14
721.711
197.719
1003.18
754.836
165.197
1001.27
777.809
108.518
984.882
768.931
3.74893
990.798
750.173
-43.508
983.439
734.012
-68.9251
987.581
733.522
-155.193
1009.91
697.14
-127.552
984.243
683.164
-125.098
992.765
675.094
-99.5315
993.5
653.7
-122.261
984.261
656.261
-132.628
988.561
-159.291
1002.34
609.629
6.21925
1018.93
610.714
18.0762
1020.34
613.648
35.377
1018.15
618.233
44.3735
1018.32
626.062
72.039
1016.01
674.004
125.628
1002.63
677.15
160.521
1012.19
718.748
158.75
1011.92
746.356
133.862
1014.22
766.515
90.092
1001.06
762.099
6.86885
1007.71
749.32
-29.0334
1000.89
735.946
-54.1611
1002.91
715.198
-136.202
1022.11
700.135
-111.92
997.795
687.002
-111.366
1006.06
679.482
-88.8223
1006.88
671.003
-111.197
1015.54
660.538
-121.435
1019.02
-147.168
1013.06
614.713
5.72316
1027.38
616.223
17.0205
1028.65
619.87
33.1113
1026.64
625.395
41.2232
1026.72
634.167
65.2758
1024.42
648.471
111.167
1012.3
681.778
136.62
1024.41
716.143
127.711
1021.39
739.077
108.17
1024.95
756.873
74.1935
1014.28
754.749
8.66324
1020.51
734.801
-22.141
1014.39
735.485
-66.2071
1016.59
715.502
-118.345
1033.11
702.183
-97.7744
1010.32
690.072
-98.3852
1017.58
683.05
-78.7143
1018.08
674.419
-100.141
1025.39
663.976
-109.982
1028.04
-134.255
1022.22
619.329
5.18742
1035.01
621.168
15.6748
1036.14
625.372
30.3069
1034.31
631.61
37.4063
1034.36
640.895
58.0203
1032.3
655.705
96.2737
1022.18
685.363
116.053
1033.59
714.035
101.892
1031.66
733.183
87.1968
1033.88
748.667
60.8733
1024.85
748.573
9.00222
1030.72
741.762
-12.5367
1023.95
735.056
-53.5217
1026.71
716.311
-101.767
1041.92
703.98
-84.4325
1020.88
692.587
-85.7953
1027.3
685.941
-68.9487
1027.92
677.214
-89.0659
1034.38
666.81
-98.3056
1036.33
-120.711
1030.65
623.539
4.63231
1041.96
625.662
14.0928
1042.96
630.3
27.1024
1041.35
637.007
33.1727
1041.39
646.552
50.5365
1039.72
655.009
75.6012
1032.53
687.937
73.1784
1041.62
716.177
82.6253
1042.43
728.479
83.4926
1040.16
742.209
49.5593
1033.77
743.394
8.50916
1039.26
752.859
-40.2015
1054.9
734.012
-48.6158
1056.07
717.163
-86.9601
1049.63
705.397
-71.6401
1031.35
694.68
-73.8017
1035.97
688.492
-59.6157
1036.63
679.637
-77.9767
1042.39
669.362
-86.4192
1043.69
-106.632
1038.23
627.428
4.02876
1048.42
629.77
12.3261
1049.27
634.718
23.6058
1047.86
641.765
28.634
1047.91
651.377
43.0393
1046.47
671.41
62.7477
1040.11
689.285
59.4213
1046.27
706.128
65.2969
1049.86
724.745
67.1415
1044.18
737.166
39.819
1041.45
739.182
7.6203
1046.58
734.453
-32.6202
1042.57
733.211
-39.2859
1042.45
688.447
-43.6875
1031.04
706.345
-89.7842
1022.86
696.582
-62.34
1042.94
690.821
-50.5414
1044.33
681.833
-66.8302
1049.68
671.706
-74.3571
1050.46
-92.1149
1045.36
631.041
3.40598
1054.42
633.554
10.4264
1055.14
638.732
19.919
1053.94
646.015
23.9552
1053.9
655.661
35.8768
1051.84
673.947
50.9925
1047.78
690.721
47.2491
1052.11
705.262
50.9768
1055.97
722.285
52.7784
1050.09
733.374
31.4456
1048.91
735.948
6.50013
1053.25
733.152
-26.1109
1049.62
732.612
-31.2433
1050.68
723.727
-34.9397
1058.58
702.352
-64.7501
1053.44
698.136
-52.238
1042.86
692.849
-41.75
1051.21
683.818
-55.6999
1056.5
673.919
-62.1877
1056.74
-77.2845
1052
634.428
2.74612
1060.06
637.058
8.43314
1060.65
642.415
16.057
1059.66
649.892
19.2329
1059.33
656.314
28.0142
1055.03
676.435
30.4169
1055.3
692.077
36.2805
1058.21
705.21
38.759
1061.35
720.707
40.1091
1056.24
730.825
24.126
1055.63
733.741
5.32798
1059.2
742.481
-16.2584
1056.15
732.321
-1.28478
1058.12
724.29
-26.9941
1065.41
709.696
-51.1229
1067.7
699.968
-41.8741
1055.31
694.896
-33.1839
1057.76
685.79
-44.5634
1062.76
676.12
-49.8665
1062.52
-62.156
1058.22
637.607
2.07031
1065.38
640.326
6.36941
1065.84
645.79
12.1049
1065.05
653.422
14.4313
1064.61
666.338
21.2281
1060.99
678.993
22.2556
1064.4
693.347
26.3694
1064.43
705.976
27.7102
1066.34
719.912
29.0599
1062.19
729.647
17.2818
1061.82
733.408
3.62754
1064.6
731.491
-11.3518
1062.19
732.517
-0.313694
1065.03
725.125
-19.6687
1071.74
711.972
-38.7405
1073.91
701.909
-31.0473
1061.99
696.961
-24.7472
1064.18
687.805
-33.4244
1068.67
678.37
-37.4872
1067.94
-46.855
1064.11
640.607
1.3792
1070.43
643.396
4.26742
1070.75
648.922
8.10989
1070.19
656.512
9.61215
1069.89
669.208
13.544
1067.83
680.97
14.4509
1070.65
694.702
17.1511
1069.8
706.766
17.9099
1070.9
719.971
18.8149
1067.76
728.895
11.3478
1067.46
732.683
2.22596
1069.52
731.835
-7.45771
1067.9
733.339
0.0936477
1071.4
726.437
-12.8149
1077.65
713.846
-27.1329
1078.94
704.046
-20.1638
1068.47
699.205
-16.4189
1070.29
690.009
-22.2949
1074.3
680.832
-25.0489
1073.09
-31.3583
1069.75
643.459
0.689302
1075.24
646.288
2.12819
1075.44
651.839
4.05135
1075.11
659.344
4.80139
1074.94
670.838
6.64189
1073.65
682.681
7.1287
1075.08
696.135
8.40654
1074.7
708.127
8.90901
1075.14
720.829
9.14141
1073.03
729.644
5.6125
1072.77
733.44
1.15338
1074.11
732.914
-3.86875
1073.3
734.613
0.152385
1077.41
728.061
-6.32948
1083.2
715.859
-16.6015
1083.9
706.278
-9.47473
1074.74
701.534
-8.19744
1076.1
692.281
-11.1535
1079.65
683.365
-12.555
1078.04
-15.7287
1075.19
646.167
1079.83
649.015
1079.87
654.564
1079.75
662.01
1079.71
672.648
1079.35
684.413
1079.74
697.641
1079.37
710.244
1079.03
722.461
1077.94
731.216
1077.7
735.412
1078.28
734.704
1078.21
736.48
1083
730.111
1088.27
714.236
1084.1
708.69
1075.57
703.929
1081.27
694.591
1084.29
685.906
1082.21
1079.76
-56.4605
-0.622367
34.0742
0.486454
56.4313
-55.1728
-0.121931
-33.9637
33.8728
0.224933
55.1607
-55.9476
-0.621614
-34.0206
34.0215
0.59539
55.9729
-51.582
-1.5644
-31.7699
30.3826
2.88593
51.6478
-51.201
-33.0291
29.5316
3.76102
51.1513
-0.213845
-46.199
-26.6986
25.7281
1.43538
46.2614
-0.527333
-1.52716
139.825
1.77632
233.223
-233.3
-3.00534
-230.925
-139.356
138.545
3.91422
230.828
-6.19235
-227.972
-137.322
136.035
7.57598
227.875
-17.5353
-228.953
-135.044
136.136
16.6076
228.79
-18.0904
-235.961
-138.747
136.364
20.6112
235.823
-23.3204
-226.849
-130.826
124.178
30.165
226.652
-12.3114
-221.341
112.928
60.3224
221.579
-13.6848
-13.4339
-14.6726
-119.386
-59.6281
-26.6516
-26.6914
29.1351
24.2695
59.5665
-16.6094
-3.14465
3.80806
16.3902
-0.444233
-39.8324
1.56428
-0.364585
-1.19187
39.3597
0.464864
-46.8727
1.19535
-4.99806
7.46181
-3.30271
46.5163
-209.661
12.773
-12.791
73.4107
-53.6804
205.626
13.1386
9.37964
9.58824
-17.1294
-13.1403
-17.5135
-53.3882
4.92209
-20.2347
22.0098
-6.84568
53.5368
-220.382
6.27284
-105.717
108.697
-29.3252
220.6
7.46744
5.79412
6.59266
570.973
11.1485
955.361
-2.23606
-3.00105
-1.80087
-2.84245
566.266
24.7351
952.249
-4.48833
-5.34559
-4.40525
-5.51712
563.519
46.0547
947.392
-8.52965
-12.7356
-8.74751
-12.9514
561.332
73.7377
953.342
-16.5957
-19.2144
-16.8443
-18.9097
547.464
110.368
954.701
-22.9958
-25.8298
-22.5665
-25.4163
529.38
178.976
938.886
-35.1886
-44.8758
-34.9336
-45.753
130.165
314.523
919.034
136.619
129.522
136.152
-66.3769
-88.281
-68.7006
-90.3671
-230.768
-131.31
127.817
229.391
34.8081
32.868
34.6743
32.6839
-25.9619
-6.79706
28.0024
4.47159
0.285008
16.1962
-74.3912
-164.871
90.2789
-33.3608
166.148
24.0725
-183.8
-104.067
117.024
-34.509
181.28
33.3818
-127.176
-208.902
134.631
-37.5132
205.579
148.376
-185.088
907.163
58.7543
60.5039
39.5936
38.705
-139.325
-152.988
-139.36
-153.15
150.55
148.157
149.981
41.5486
-231.937
148.371
-40.8667
231.26
-102.699
930.535
29.7342
26.7002
28.2228
22.1806
-147.936
-152.423
-147.974
-152.356
581.233
11.2355
971.915
578.901
27.1604
972.148
576.896
48.1059
968.936
574.467
76.0575
970.697
568.511
116.03
970.329
567.244
180.328
960.503
145.282
295.893
944.952
149.066
144.816
148.512
-119.321
-236.986
152.594
111.789
237.205
-56.9289
-44.3309
-42.6454
45.9867
40.9238
56.9946
-47.5881
-48.5983
40.2255
9.84119
47.5035
-1.3838
1.31764
-9.47571
-53.5495
54.3932
40.5543
-9.40998
1.29514
1.32792
1.59474
-9.44782
-9.16386
-9.43608
677.404
-159.885
924.832
-159.694
-167.41
-162.14
-169.859
38.2999
35.8131
31.8987
36.3403
664.175
-145.489
929.573
37.613
37.1755
38.1749
38.0615
653.901
-142.632
932.331
37.0827
37.6708
37.5413
37.8168
638.292
-147.676
933.454
36.735
39.092
37.2013
39.2087
634.958
-174.708
948.773
632.057
-134.541
962.6
41.7458
29.4433
32.8029
29.9189
-98.1633
959.89
589.858
10.9126
986.408
588.926
28.0841
987.548
588.051
48.8903
984.812
587.391
76.5737
985.62
587.389
115.747
984.926
593.997
173.708
976.869
629.878
260.283
965.314
177.743
361.875
982.43
-105.112
-116.108
-103.585
-116.288
176.768
177.811
176.979
-115.931
-244.893
192.103
101.687
244.778
-53.0173
-233.551
-197.028
196.897
52.8807
233.819
-5.95659
-226.14
201.812
17.0955
226.344
-3.13551
-6.51728
-3.68838
-199.813
6.42924
-200.071
-229.904
190.401
-24.0822
232.456
8.51862
7.12633
9.12546
661.366
-194.194
963.587
54.7174
75.325
53.128
59.201
-184.942
-187.687
-185.74
-187.797
684.314
-225.572
951.509
682.971
-155.719
945.642
669.467
-131.333
957.509
657.578
-134.864
957.169
650.499
-162.144
967.685
643.301
-124.693
978.186
-93.562
975.612
597.266
10.3849
998.826
597.274
27.9975
1000.28
597.55
48.4637
997.818
598.869
75.0895
998.238
602.687
111.701
997.246
614.101
162.715
987.968
647.881
226.422
980.918
713.5
295.688
989.562
762.97
256.114
986.462
-88.7401
-64.7833
-88.1351
-64.5018
786.406
162.962
962.391
-50.5191
-43.0456
-50.1171
-43.0644
779.442
26.4386
967.44
-14.6941
4.54569
-15.0287
4.71615
750.488
-36.1205
963.549
18.4982
34.7039
17.9596
16.0388
706.996
-165.882
987.022
701.696
-205.322
978.445
692.231
-143.022
964.394
678.998
-119.404
978.087
667.382
-122.64
977.645
659.766
-149.76
984.725
652.197
-115.175
993.247
-88.4999
990.253
603.719
9.72833
1009.62
604.408
27.1717
1011.1
605.751
46.9353
1008.81
608.701
71.9632
1009.05
615.148
105.138
1007.23
628.479
151.878
993.693
660.314
195.89
996.838
710.813
245.217
1003.15
751.971
214.636
1001.59
775.122
139.771
984.922
769.071
31.5209
991.766
750.558
-18.8931
984.725
687.545
-58.8066
943.518
708.886
-171.629
954.879
697.708
-128.195
980.594
684.265
-107.099
993.903
672.864
-110.804
993.064
652.527
-142.814
997.653
657.249
-135.98
1004.64
-82.9021
1002
609.413
9.01557
1019.09
610.632
25.8087
1020.49
612.862
44.5085
1018.35
617.098
67.5723
1018.48
625.091
97.0331
1016.13
639.67
137.524
1002.4
666.883
167.106
1013.76
708.49
203.211
1012.32
743.525
179.386
1014.44
764.156
118.935
1001.26
762.302
33.1712
1007.92
749.375
-6.71454
1001.63
736.261
-45.0143
1002.24
711.689
-151.378
1026.43
700.686
-113.475
994.077
687.829
-94.9462
1006.77
677.071
-99.2467
1006.08
669.769
-130.1
1010.13
661.119
-124.163
1015.86
-76.7923
1012.72
614.496
8.26019
1027.52
616.128
24.0478
1028.78
619.091
41.3771
1026.81
624.271
62.2377
1026.88
633.159
87.9872
1024.58
648.89
121.739
1012.35
672.215
142.867
1025.33
706.68
168.518
1021.62
736.38
149.502
1025.13
754.619
100.498
1014.47
754.882
32.7268
1020.69
746.304
1.74814
1014.51
735.685
-33.5818
1015.77
712.951
-132.1
1036.56
702.793
-99.5813
1006.59
690.656
-83.4588
1018.22
680.473
-88.2793
1017.29
672.985
-117.422
1020.2
664.196
-112.267
1024.93
-70.2121
1021.86
619.099
7.45435
1035.14
621.064
21.9467
1036.27
624.591
37.6892
1034.47
630.488
56.2155
1034.49
639.957
78.3802
1032.44
655.987
105.765
1022.13
676.546
121.933
1033.96
705.909
138.975
1031.84
730.655
124.588
1034.05
746.529
84.4472
1025.03
748.513
30.5964
1030.86
750.819
-15.6363
1039.03
735.13
-30.3639
1039.18
714.092
-113.972
1044.83
704.502
-86.3016
1017.19
692.931
-72.353
1027.77
683.256
-77.5468
1026.87
675.656
-104.629
1029.19
666.691
-100.232
1033.26
-63.2543
1030.27
623.31
6.58815
1042.09
625.539
19.5924
1043.08
629.51
33.6029
1041.46
635.903
49.7296
1041.49
645.694
68.4718
1039.84
662.093
89.6058
1032.29
680.193
103.889
1041.56
705.395
113.665
1042.54
726.207
103.701
1040.23
740.157
70.3733
1033.89
743.128
27.5695
1039.32
756.565
-15.188
1041.01
734.1
7.90426
1040.27
714.773
-97.1946
1052.18
705.701
-73.2968
1027.42
694.909
-61.7993
1036.21
685.712
-67.1556
1035.44
678.069
-91.7391
1037.14
668.91
-88.0523
1040.67
-55.976
1037.8
627.194
5.71663
1048.51
629.639
17.0576
1049.36
633.937
29.2085
1047.96
640.679
42.9226
1047.98
650.564
58.5163
1046.54
665.094
74.9862
1040.2
682.441
86.4452
1046.37
703.768
92.2259
1049.97
722.685
84.7002
1044.26
735.189
57.7772
1041.54
738.706
24.0335
1046.6
734.889
-10.8169
1042.02
733.358
9.51372
1042.37
697.738
-88.6488
1058.12
706.515
-97.1641
1037.95
696.73
-51.8691
1042.79
687.935
-57.0585
1043.03
680.24
-78.779
1044.42
670.896
-75.7005
1047.45
-48.3851
1044.85
630.809
4.79439
1054.49
633.406
14.3884
1055.22
637.948
24.5917
1054.01
644.911
35.9163
1053.94
654.627
48.8181
1051.82
668.3
61.2295
1047.86
684.648
70.036
1052.17
703.261
73.546
1056.04
720.382
67.5037
1050.17
731.509
46.5665
1049
735.34
20.2481
1053.2
732.705
-7.71056
1049.14
732.718
9.68368
1050.5
712.875
-72.9279
1062.7
701.976
-80.6371
1047.82
698.176
-51.5685
1046.36
689.906
-47.2733
1049.69
682.177
-65.7615
1051.21
672.747
-63.2583
1053.73
-40.6079
1051.43
634.187
3.85889
1060.12
636.904
11.6193
1060.71
641.632
19.8196
1059.7
648.705
28.8459
1059.33
657.458
40.1578
1054.94
671.262
47.1291
1055.6
686.756
54.4758
1058.28
703.374
56.8882
1061.39
718.887
51.9523
1056.28
729.084
36.3239
1055.68
733.065
16.3834
1059.09
731.253
-5.48845
1055.74
732.364
8.85139
1057.84
705.264
-26.9561
1046.54
707.905
-58.8878
1043.31
699.887
-40.9673
1052.73
691.954
-37.5929
1056.01
684.13
-52.6655
1057.49
674.62
-50.7028
1059.47
-32.6462
1057.58
637.355
2.90834
1065.43
640.167
8.77036
1065.88
645.008
14.9444
1065.08
652.21
21.668
1064.58
662.305
30.345
1060.71
674.538
34.6305
1064.67
688.822
40.1342
1064.49
704.317
41.3772
1066.35
718.237
38.0026
1062.22
728.048
26.4923
1061.85
732.604
11.97
1064.46
730.71
-3.21883
1061.81
732.555
7.33676
1064.7
725.173
-19.6766
1071.84
710.297
-45.7188
1075.62
701.621
-30.0206
1059.72
694.059
-28.0805
1062.23
686.194
-39.5553
1063.42
676.559
-38.1064
1064.98
-24.5834
1063.41
640.359
1.93153
1070.48
643.226
5.87138
1070.79
648.154
9.98362
1070.22
655.392
14.4464
1069.88
666.084
19.7978
1067.68
677.354
23.2081
1070.8
691.004
26.4544
1069.82
705.3
27.0811
1070.9
718.467
24.819
1067.78
727.434
17.5318
1067.45
731.745
7.81278
1069.37
730.93
-2.01026
1067.51
733.369
5.20088
1071.1
726.465
-12.8374
1077.71
712.647
-33.5182
1080.55
703.596
-18.9342
1066.44
696.278
-18.6446
1068.17
688.452
-26.4075
1068.98
678.723
-25.4433
1070.16
-16.4279
1069.02
643.215
0.961658
1075.26
646.124
2.93532
1075.46
651.094
4.99952
1075.12
658.329
7.22
1074.93
668.352
9.77792
1073.65
679.911
11.6032
1075.12
693.261
13.1088
1074.69
706.849
13.5075
1075.13
719.505
12.159
1073.04
728.327
8.71829
1072.76
732.383
3.9573
1073.91
731.935
-1.10696
1072.85
734.642
2.73515
1077.17
728.086
-6.33273
1083.25
715.409
-22.6288
1085.69
705.711
-7.44357
1072.95
698.624
-9.31876
1073.86
690.712
-13.2396
1074.39
680.978
-12.7655
1075.09
-8.24798
1074.47
645.92
1079.85
648.833
1079.89
653.832
1079.75
661.077
1079.68
670.884
1079.32