/*--------------------------------*- C++ -*----------------------------------*\
  =========                 |
  \\      /  F ield         | OpenFOAM: The Open Source CFD Toolbox
   \\    /   O peration     | Website:  https://openfoam.org
    \\  /    A nd           | Version:  10
     \\/     M anipulation  |
\*---------------------------------------------------------------------------*/
FoamFile
{
    format      ascii;
    class       volVectorField;
    location    "2000";
    object      U;
}
// * * * * * * * * * * * * * * * * * * * * * * * * * * * * * * * * * * * * * //

dimensions      [0 1 -1 0 0 0 0];

internalField   nonuniform List<vector> 
55398
(
(17.9076 0.252932 10.3048)
(18.3829 0.357121 10.2769)
(18.0267 0.0683104 10.2582)
(17.7838 0.50781 10.1439)
(17.2917 0.695056 10.0351)
(15.5562 0.860711 9.47836)
(18.5885 0.161115 10.7161)
(18.7462 0.287478 10.7051)
(18.5458 0.383207 10.6928)
(18.3416 0.698588 10.6599)
(17.9786 1.02716 10.6206)
(17.275 1.65511 10.559)
(15.9515 2.97003 10.4264)
(12.2776 5.36676 9.4551)
(-3.27013 0.321656 7.12525)
(-1.11517 -0.105363 8.98545)
(3.64249 -0.635222 9.77521)
(7.99825 -1.04885 9.9307)
(11.0459 -0.741075 9.98029)
(12.471 -1.04548 9.71627)
(19.1509 0.170765 11.0411)
(19.1558 0.308894 11.0356)
(19.0421 0.570227 11.0178)
(18.8513 0.899285 10.9924)
(18.5483 1.40377 10.9563)
(18.0847 2.33683 10.8946)
(17.4433 4.34146 10.7922)
(17.0397 7.20496 10.5019)
(-0.581632 0.392436 4.38269)
(11.2964 -1.36881 7.703)
(15.2559 -2.16088 8.74746)
(17.6886 -2.27037 9.77558)
(18.4445 -1.99348 10.2588)
(19.5759 -1.46266 10.7329)
(19.7974 -1.20898 10.8161)
(19.4907 0.148653 11.242)
(19.494 0.343539 11.235)
(19.4173 0.605739 11.2207)
(19.2869 0.970951 11.2003)
(19.1289 1.51547 11.1708)
(18.9026 2.4594 11.1158)
(19.0079 4.21711 11.0268)
(19.2941 6.45379 10.8312)
(23.669 9.527 10.5294)
(24.444 2.8659 9.60257)
(20.3185 -2.40456 9.68921)
(21.7759 -2.02974 10.5548)
(22.3095 -2.14864 10.5253)
(21.9457 -2.22922 10.5997)
(21.4954 -2.12369 10.786)
(21.2007 -1.68979 11.0087)
(21.1613 -1.49513 11.1115)
(21.0985 -1.19997 11.1501)
(19.7739 0.142121 11.4086)
(19.7812 0.36016 11.4018)
(19.7416 0.635016 11.3897)
(19.6786 1.01354 11.3731)
(19.6346 1.56487 11.3471)
(19.6497 2.42292 11.306)
(20.0114 3.89099 11.2293)
(21.7704 5.46834 11.1049)
(24.3046 5.95515 10.8495)
(26.5304 3.36378 10.7022)
(27.8641 1.67664 10.6439)
(25.8901 -2.31006 10.6667)
(24.2758 -2.07882 10.9166)
(23.3457 -1.96732 10.942)
(23.0322 -2.0316 10.9107)
(22.5363 -2.04894 10.9539)
(22.0374 -1.92992 11.0616)
(21.6955 -1.59582 11.2107)
(21.5953 -1.42354 11.2784)
(21.4284 -1.19891 11.3124)
(20.0185 0.133665 11.5517)
(20.0319 0.365219 11.5455)
(20.0262 0.644547 11.5353)
(20.021 1.01899 11.521)
(20.0753 1.54296 11.5)
(20.2345 2.31117 11.4618)
(20.7918 3.38451 11.4152)
(22.3411 4.73481 11.3025)
(24.8357 3.95726 11.1979)
(26.3238 2.65998 11.1474)
(26.9878 0.678153 11.1505)
(25.79 -1.22657 11.1378)
(24.4129 -1.70619 11.1944)
(23.839 -1.75002 11.2126)
(23.4135 -1.8161 11.213)
(22.8985 -1.82285 11.2375)
(22.4438 -1.73106 11.296)
(22.0631 -1.45845 11.3974)
(21.9321 -1.33339 11.4433)
(21.6948 -1.16364 11.4679)
(20.2336 0.126632 11.6769)
(20.2539 0.361934 11.6715)
(20.277 0.637582 11.6628)
(20.3241 0.996115 11.6517)
(20.4468 1.47886 11.6343)
(20.7207 2.14098 11.6017)
(21.3093 2.96461 11.5663)
(22.6848 3.82139 11.4994)
(24.5802 3.30746 11.4184)
(25.8737 2.10856 11.3817)
(26.2555 0.428177 11.3559)
(25.5927 -1.02027 11.3782)
(24.6912 -1.46372 11.4137)
(24.0616 -1.59786 11.4283)
(23.6078 -1.65242 11.427)
(23.0921 -1.64518 11.4392)
(22.6692 -1.56665 11.4765)
(22.2805 -1.34872 11.5488)
(22.1377 -1.25242 11.5796)
(21.8459 -1.11846 11.6)
(20.4254 0.119018 11.7883)
(20.4524 0.350415 11.7837)
(20.5002 0.615518 11.7764)
(20.5894 0.95039 11.7679)
(20.7649 1.38495 11.7538)
(21.1036 1.93455 11.7307)
(21.7118 2.56642 11.6984)
(22.8833 3.14842 11.6508)
(24.4037 2.77935 11.6007)
(25.4836 1.8277 11.5696)
(25.8692 0.408746 11.5474)
(25.4552 -0.662359 11.551)
(24.7594 -1.11971 11.5664)
(24.1605 -1.30945 11.5908)
(23.7161 -1.40357 11.5997)
(23.2249 -1.42601 11.6133)
(22.8348 -1.37885 11.6384)
(22.4496 -1.21751 11.6888)
(22.2964 -1.14589 11.7106)
(21.9723 -1.04513 11.7289)
(20.5986 0.11116 11.8891)
(20.632 0.332057 11.8858)
(20.7 0.581303 11.8799)
(20.8214 0.888436 11.8721)
(21.0358 1.2692 11.8609)
(21.4103 1.72736 11.8405)
(22.0149 2.2093 11.8161)
(23.0173 2.61011 11.7801)
(24.2448 2.32713 11.7457)
(25.1707 1.53472 11.7252)
(25.5307 0.449606 11.7139)
(25.2609 -0.482346 11.7108)
(24.7196 -0.956862 11.7189)
(24.1988 -1.16449 11.7391)
(23.7831 -1.26204 11.747)
(23.3326 -1.28119 11.7554)
(22.9688 -1.24273 11.7713)
(22.5874 -1.11295 11.8069)
(22.4246 -1.05547 11.8232)
(22.0715 -0.9763 11.8382)
(20.7564 0.102273 11.9808)
(20.7955 0.308244 11.9785)
(20.8804 0.537807 11.9736)
(21.027 0.813889 11.9666)
(21.2682 1.14363 11.9571)
(21.6568 1.52417 11.9413)
(22.2405 1.89046 11.9217)
(23.1125 2.15852 11.8939)
(24.1288 1.93463 11.8682)
(24.9184 1.29602 11.8545)
(25.2554 0.428453 11.8476)
(25.094 -0.336361 11.8402)
(24.6864 -0.752624 11.844)
(24.228 -0.95985 11.8617)
(23.8401 -1.05906 11.8713)
(23.4158 -1.09184 11.8791)
(23.074 -1.07184 11.89)
(22.6997 -0.980232 11.9151)
(22.5298 -0.938232 11.9272)
(22.1527 -0.879874 11.9389)
(20.9012 0.092682 12.0643)
(20.9453 0.279959 12.0625)
(21.0432 0.486667 12.0585)
(21.2086 0.729584 12.0526)
(21.4676 1.01122 12.0448)
(21.8611 1.32393 12.0314)
(22.4189 1.60683 12.0167)
(23.1852 1.78334 11.9979)
(24.043 1.59969 11.9787)
(24.7231 1.0832 11.967)
(25.0351 0.394419 11.9616)
(24.9492 -0.227874 11.9558)
(24.6322 -0.606864 11.9565)
(24.2374 -0.811897 11.9704)
(23.8797 -0.915807 11.9793)
(23.4857 -0.953724 11.9864)
(23.1635 -0.945509 11.9934)
(22.7973 -0.875517 12.0115)
(22.6219 -0.842192 12.0203)
(22.2292 -0.794686 12.0296)
(21.035 0.0820885 12.1415)
(21.0833 0.248241 12.14)
(21.1913 0.429994 12.1367)
(21.3703 0.639333 12.1319)
(21.6408 0.875723 12.1255)
(22.0315 1.12949 12.1156)
(22.5619 1.34679 12.1027)
(23.2451 1.46262 12.0896)
(23.9806 1.31264 12.0771)
(24.5767 0.898113 12.0658)
(24.8639 0.351275 12.0614)
(24.8285 -0.154646 12.057)
(24.5871 -0.479884 12.0568)
(24.248 -0.669018 12.0671)
(23.9174 -0.763638 12.0751)
(23.551 -0.799317 12.0814)
(23.2424 -0.79826 12.0861)
(22.8827 -0.748261 12.0992)
(22.7027 -0.723732 12.1058)
(22.297 -0.68866 12.1137)
(21.1593 0.0706954 12.2131)
(21.211 0.213811 12.2119)
(21.3266 0.369112 12.2093)
(21.5154 0.544936 12.2054)
(21.7925 0.738856 12.2005)
(22.1776 0.940643 12.1926)
(22.682 1.10508 12.1828)
(23.298 1.18202 12.1733)
(23.9436 1.05812 12.1646)
(24.4723 0.729603 12.1561)
(24.7362 0.30375 12.1527)
(24.7343 -0.105844 12.1498)
(24.5506 -0.374675 12.1488)
(24.2582 -0.542228 12.1544)
(23.9503 -0.628695 12.1622)
(23.6055 -0.666034 12.1678)
(23.3105 -0.671581 12.1712)
(22.958 -0.637113 12.1805)
(22.7755 -0.619158 12.1852)
(22.3624 -0.592025 12.1912)
(21.2753 0.0586396 12.28)
(21.3296 0.17731 12.279)
(21.451 0.305219 12.277)
(21.6464 0.44786 12.2741)
(21.926 0.603115 12.2698)
(22.305 0.75949 12.264)
(22.7863 0.881539 12.2569)
(23.3498 0.933524 12.2501)
(23.9269 0.834892 12.2437)
(24.4074 0.577531 12.2377)
(24.651 0.247418 12.2351)
(24.6705 -0.0698431 12.2341)
(24.5261 -0.287102 12.2334)
(24.273 -0.425503 12.2365)
(23.9858 -0.501135 12.2414)
(23.6615 -0.534635 12.2456)
(23.3777 -0.54182 12.2482)
(23.0313 -0.517387 12.255)
(22.847 -0.504012 12.2585)
(22.4276 -0.483696 12.2633)
(21.3841 0.0460799 12.3427)
(21.4403 0.139284 12.342)
(21.5658 0.239185 12.3405)
(21.7657 0.349288 12.3384)
(22.0468 0.468109 12.335)
(22.4182 0.583233 12.331)
(22.8832 0.670966 12.3261)
(23.3986 0.705549 12.3214)
(23.9597 0.624766 12.3169)
(24.3435 0.443057 12.3131)
(24.6547 0.202509 12.311)
(24.6428 -0.0476699 12.3114)
(24.5237 -0.214213 12.3104)
(24.2967 -0.322158 12.3116)
(24.0277 -0.382162 12.315)
(23.7198 -0.410183 12.318)
(23.4443 -0.418222 12.3197)
(23.1031 -0.402614 12.3244)
(22.9178 -0.393694 12.3269)
(22.4953 -0.379476 12.3304)
(21.4865 0.0331533 12.4017)
(21.5441 0.10018 12.4013)
(21.6723 0.1717 12.4003)
(21.8752 0.249954 12.3988)
(22.1574 0.33326 12.3964)
(22.523 0.413231 12.3939)
(22.9719 0.472927 12.3906)
(23.4637 0.491255 12.3876)
(23.9705 0.439332 12.3846)
(24.361 0.305824 12.3821)
(24.6019 0.131716 12.381)
(24.641 -0.0226384 12.3813)
(24.5447 -0.143736 12.3807)
(24.3371 -0.223152 12.3813)
(24.0818 -0.268329 12.3837)
(23.7854 -0.290045 12.3857)
(23.5165 -0.297163 12.3867)
(23.1795 -0.287035 12.3899)
(22.9937 -0.280967 12.3914)
(22.5686 -0.271076 12.3939)
(21.5832 0.0199643 12.4575)
(21.6416 0.0603399 12.4573)
(21.7717 0.103295 12.4567)
(21.9761 0.150132 12.4558)
(22.2585 0.199092 12.4545)
(22.6205 0.246656 12.453)
(23.0586 0.280473 12.4512)
(23.5332 0.293101 12.4496)
(24.0123 0.259035 12.448)
(24.3955 0.18429 12.4466)
(24.6273 0.077844 12.446)
(24.6643 -0.0116611 12.4462)
(24.5824 -0.0834074 12.4457)
(24.3885 -0.130917 12.4461)
(24.1429 -0.158546 12.4479)
(23.8555 -0.171869 12.4491)
(23.5906 -0.176955 12.4496)
(23.2565 -0.171633 12.4518)
(23.0706 -0.168477 12.4528)
(22.6445 -0.163044 12.4546)
(21.6747 0.00665017 12.5103)
(21.7334 0.0201166 12.5101)
(21.8642 0.0344288 12.5097)
(22.0693 0.0499904 12.5093)
(22.3518 0.0661309 12.5087)
(22.7112 0.0815375 12.5081)
(23.1465 0.0917837 12.5074)
(23.6044 0.0967681 12.5067)
(24.1008 0.0832947 12.5062)
(24.4296 0.0598416 12.5058)
(24.71 0.0327108 12.5057)
(24.7091 -0.00822497 12.5056)
(24.6424 -0.0304246 12.5052)
(24.4559 -0.0451542 12.505)
(24.2141 -0.0538409 12.5049)
(23.9296 -0.0582814 12.5046)
(23.6672 -0.0599278 12.5047)
(23.3336 -0.057985 12.5048)
(23.1471 -0.0568239 12.5046)
(22.7195 -0.0547945 12.5046)
(17.9062 0.240841 10.3098)
(18.4003 0.34468 10.3071)
(18.0699 0.10929 10.2885)
(17.8945 0.542359 10.2454)
(17.2145 0.680712 9.99177)
(16.1062 0.953683 9.8279)
(18.603 0.158571 10.7234)
(18.7685 0.28611 10.7237)
(18.573 0.383984 10.7108)
(18.3683 0.702658 10.6713)
(17.9973 1.03107 10.6243)
(17.299 1.66931 10.5682)
(15.9853 3.00187 10.348)
(11.6308 5.19786 9.21714)
(-2.85509 0.403776 7.04695)
(-0.739241 -0.138664 8.64275)
(3.76038 -0.705596 9.57757)
(8.01552 -0.965585 9.71816)
(10.7875 -0.702283 9.91781)
(13.7077 -1.12792 10.0966)
(19.1566 0.169972 11.0459)
(19.1604 0.308694 11.042)
(19.0532 0.56948 11.0259)
(18.8707 0.901273 10.9996)
(18.5693 1.41063 10.9677)
(18.1301 2.33568 10.8841)
(17.6009 4.33305 10.7522)
(17.0135 7.24519 10.4562)
(-0.0211506 0.385684 4.79531)
(11.2528 -1.2566 7.47936)
(15.3962 -2.01944 8.66278)
(17.881 -2.2211 9.72788)
(19.4646 -1.88303 10.4651)
(19.6581 -1.58421 10.5997)
(20.1756 -1.24549 10.8639)
(19.4932 0.148139 11.2444)
(19.498 0.343986 11.2405)
(19.4259 0.606719 11.2271)
(19.3023 0.97297 11.2043)
(19.1457 1.51773 11.1782)
(18.9396 2.45858 11.1028)
(19.1162 4.1686 11.0049)
(19.3541 6.41373 10.869)
(23.2601 10.0018 10.2286)
(25.1033 3.25112 9.91962)
(20.2309 -2.36796 9.86718)
(22.3264 -2.15508 10.687)
(22.2826 -2.13328 10.6006)
(21.9637 -2.15419 10.615)
(21.5327 -2.0854 10.7433)
(21.2593 -1.69232 10.9694)
(21.2089 -1.53542 11.1003)
(21.1408 -1.23555 11.1665)
(19.7757 0.142101 11.4106)
(19.7842 0.36047 11.4066)
(19.7482 0.635777 11.3947)
(19.6911 1.01492 11.3755)
(19.6477 1.56621 11.3523)
(19.6805 2.41692 11.2931)
(20.0725 3.85549 11.2249)
(21.8065 5.36244 11.1408)
(24.2278 5.91821 10.9805)
(26.4407 3.36315 10.7582)
(27.8175 0.859682 10.6294)
(26.0016 -2.32568 10.6813)
(24.1837 -2.16527 10.9536)
(23.367 -1.94447 10.9736)
(23.0256 -1.97698 10.9603)
(22.5552 -1.99554 10.9669)
(22.0736 -1.90312 11.0386)
(21.7261 -1.59577 11.1886)
(21.6262 -1.44734 11.2689)
(21.4559 -1.22318 11.3249)
(20.0199 0.133583 11.5532)
(20.0343 0.365458 11.5495)
(20.0311 0.64492 11.5392)
(20.031 1.01934 11.5225)
(20.0856 1.54232 11.5035)
(20.2581 2.30449 11.4529)
(20.8298 3.34664 11.4152)
(22.359 4.67017 11.3242)
(24.8135 3.90497 11.2512)
(26.2883 2.64252 11.1646)
(26.7772 0.310571 11.1918)
(25.8536 -1.15548 11.1777)
(24.419 -1.74743 11.2147)
(23.7968 -1.77218 11.231)
(23.389 -1.80098 11.2396)
(22.9034 -1.78778 11.2472)
(22.4633 -1.70886 11.2857)
(22.084 -1.46166 11.386)
(21.9528 -1.34836 11.4374)
(21.7099 -1.17944 11.4788)
(20.2346 0.126617 11.6782)
(20.2558 0.362122 11.6749)
(20.2808 0.6377 11.6659)
(20.3317 0.995595 11.6521)
(20.4547 1.4777 11.6357)
(20.7348 2.13194 11.5962)
(21.335 2.93425 11.5646)
(22.692 3.77661 11.5179)
(24.5642 3.2788 11.4603)
(25.8442 2.09075 11.41)
(26.2409 0.389758 11.3705)
(25.5911 -1.01945 11.3686)
(24.6985 -1.47108 11.4086)
(24.0477 -1.59361 11.4389)
(23.5977 -1.63759 11.4457)
(23.0974 -1.62262 11.4494)
(22.683 -1.55247 11.4717)
(22.292 -1.35188 11.5419)
(22.1481 -1.25937 11.5771)
(21.8561 -1.12518 11.6103)
(20.4261 0.119033 11.7894)
(20.454 0.350574 11.7865)
(20.5031 0.615555 11.7787)
(20.5954 0.950052 11.7678)
(20.7706 1.38256 11.7528)
(21.1129 1.93512 11.7265)
(21.7202 2.54733 11.7005)
(22.8817 3.11793 11.6653)
(24.3901 2.75559 11.628)
(25.4655 1.81213 11.589)
(25.8514 0.417519 11.5705)
(25.4457 -0.664281 11.5624)
(24.7607 -1.13098 11.572)
(24.1528 -1.31947 11.5973)
(23.7081 -1.40339 11.6062)
(23.2296 -1.41224 11.6181)
(22.8448 -1.3679 11.6356)
(22.4565 -1.22011 11.6839)
(22.3012 -1.14979 11.7087)
(21.9772 -1.04729 11.7353)
(20.599 0.111067 11.8896)
(20.633 0.332358 11.887)
(20.7023 0.581477 11.8805)
(20.826 0.887967 11.8713)
(21.0403 1.26778 11.8595)
(21.4132 1.72367 11.8406)
(22.0162 2.20324 11.817)
(23.0157 2.5896 11.7909)
(24.2372 2.30674 11.7667)
(25.1602 1.52058 11.7401)
(25.5189 0.450041 11.7268)
(25.253 -0.481189 11.7221)
(24.7186 -0.955804 11.7278)
(24.1938 -1.1647 11.7451)
(23.778 -1.25725 11.7536)
(23.3334 -1.27045 11.7607)
(22.9749 -1.23476 11.7709)
(22.5923 -1.11471 11.804)
(22.4274 -1.05678 11.8223)
(22.0752 -0.974118 11.8432)
(20.7567 0.102368 11.9808)
(20.7961 0.30833 11.9785)
(20.8815 0.537702 11.9732)
(21.0299 0.812884 11.9653)
(21.2719 1.14189 11.9559)
(21.659 1.52119 11.9413)
(22.2416 1.88791 11.9229)
(23.111 2.146 11.9033)
(24.1237 1.91803 11.8843)
(24.9108 1.28547 11.8653)
(25.2472 0.425347 11.8562)
(25.0855 -0.33981 11.8514)
(24.6844 -0.752237 11.8524)
(24.2256 -0.960511 11.8648)
(23.8371 -1.05886 11.8733)
(23.4174 -1.08562 11.882)
(23.0779 -1.067 11.89)
(22.7023 -0.981482 11.9136)
(22.5314 -0.938907 11.9267)
(22.1563 -0.877361 11.9429)
(20.9015 0.0927081 12.0643)
(20.9458 0.279963 12.0624)
(21.0442 0.486444 12.058)
(21.2109 0.728572 12.0516)
(21.4706 1.00954 12.0439)
(21.8619 1.31958 12.0324)
(22.4202 1.60145 12.0183)
(23.1853 1.77338 12.0033)
(24.0393 1.58982 11.9882)
(24.7191 1.07599 11.9753)
(25.0301 0.39156 11.9685)
(24.9419 -0.229192 11.9665)
(24.6294 -0.605541 11.9655)
(24.2353 -0.811271 11.9736)
(23.8772 -0.915098 11.9809)
(23.4872 -0.949017 11.9887)
(23.166 -0.94105 11.9938)
(22.7988 -0.875993 12.0105)
(22.6229 -0.841721 12.0202)
(22.2319 -0.791131 12.0329)
(21.0352 0.0821019 12.1414)
(21.0837 0.24821 12.1399)
(21.1921 0.429743 12.1364)
(21.3722 0.6384 12.1313)
(21.6431 0.87403 12.1251)
(22.0331 1.12697 12.116)
(22.563 1.34077 12.1056)
(23.2445 1.45429 12.0941)
(23.9797 1.30596 12.082)
(24.5738 0.893095 12.0722)
(24.861 0.349574 12.0666)
(24.8224 -0.157379 12.0683)
(24.5848 -0.478229 12.066)
(24.2471 -0.668737 12.069)
(23.9155 -0.764125 12.0753)
(23.5521 -0.797683 12.0824)
(23.2445 -0.795654 12.0865)
(22.8835 -0.748648 12.0986)
(22.7034 -0.723151 12.1059)
(22.2993 -0.68551 12.1162)
(21.1595 0.0706995 12.2131)
(21.2113 0.213766 12.2119)
(21.3273 0.368875 12.2091)
(21.5168 0.544073 12.2051)
(21.7941 0.737482 12.2003)
(22.1788 0.938171 12.1933)
(22.6827 1.10027 12.1854)
(23.2976 1.17611 12.1769)
(23.9433 1.05304 12.1681)
(24.4702 0.726358 12.1605)
(24.7347 0.302656 12.1563)
(24.7306 -0.107471 12.1577)
(24.5483 -0.373744 12.1558)
(24.2578 -0.542484 12.1555)
(23.95 -0.628503 12.1613)
(23.6059 -0.664817 12.1679)
(23.3118 -0.669537 12.1715)
(22.9584 -0.637194 12.1803)
(22.7759 -0.618412 12.1854)
(22.3643 -0.58895 12.1932)
(21.2755 0.0586429 12.28)
(21.3299 0.177259 12.2791)
(21.4515 0.305006 12.2769)
(21.6476 0.447155 12.2739)
(21.9273 0.601595 12.2703)
(22.3059 0.756968 12.265)
(22.7868 0.877505 12.2592)
(23.3495 0.928951 12.2529)
(23.927 0.830609 12.2461)
(24.4058 0.575419 12.2405)
(24.6503 0.246171 12.2375)
(24.6689 -0.071629 12.2384)
(24.5251 -0.286733 12.2367)
(24.273 -0.425519 12.2374)
(23.9855 -0.501589 12.2411)
(23.6616 -0.534006 12.2459)
(23.3784 -0.540328 12.2484)
(23.0315 -0.517379 12.2548)
(22.8474 -0.503306 12.2587)
(22.4292 -0.481139 12.2648)
(21.3842 0.0460833 12.3427)
(21.4405 0.139242 12.342)
(21.5661 0.239005 12.3405)
(21.7665 0.348711 12.3384)
(22.0478 0.466636 12.3354)
(22.4187 0.581178 12.3322)
(22.8835 0.667962 12.328)
(23.3985 0.702196 12.3236)
(23.9599 0.622008 12.3185)
(24.3424 0.441572 12.3149)
(24.6549 0.201599 12.3126)
(24.6423 -0.0483725 12.3129)
(24.5235 -0.214513 12.3115)
(24.2968 -0.32224 12.3122)
(24.0276 -0.382222 12.3155)
(23.7199 -0.409662 12.3186)
(23.4449 -0.417107 12.3201)
(23.1032 -0.402504 12.3244)
(22.9181 -0.393057 12.3271)
(22.4966 -0.377374 12.3315)
(21.4866 0.0331512 12.4018)
(21.5442 0.100152 12.4013)
(21.6726 0.171573 12.4003)
(21.8757 0.249534 12.3989)
(22.1578 0.332147 12.3968)
(22.5236 0.411702 12.3948)
(22.9721 0.470871 12.392)
(23.4637 0.489101 12.3891)
(23.9703 0.437548 12.3857)
(24.3612 0.304794 12.3831)
(24.6015 0.130854 12.3818)
(24.6409 -0.0232107 12.3821)
(24.5446 -0.14387 12.3813)
(24.3373 -0.22302 12.3817)
(24.0818 -0.26809 12.3839)
(23.7856 -0.289559 12.3861)
(23.5169 -0.296364 12.387)
(23.1795 -0.287023 12.3899)
(22.9939 -0.280515 12.3916)
(22.5696 -0.269525 12.3947)
(21.5832 0.0199602 12.4575)
(21.6417 0.0603231 12.4573)
(21.7718 0.103225 12.4567)
(21.9765 0.149879 12.4559)
(22.2588 0.198696 12.4548)
(22.6207 0.245718 12.4536)
(23.0588 0.279201 12.4521)
(23.5332 0.291741 12.4504)
(24.0124 0.257908 12.4486)
(24.3954 0.183712 12.4471)
(24.6278 0.0774087 12.4464)
(24.6647 -0.012015 12.4467)
(24.5823 -0.0835518 12.4461)
(24.3885 -0.13088 12.4463)
(24.1429 -0.158348 12.448)
(23.8555 -0.171739 12.4494)
(23.591 -0.176446 12.4499)
(23.2565 -0.171604 12.4518)
(23.0707 -0.168188 12.453)
(22.6452 -0.162128 12.455)
(21.6747 0.00664737 12.5103)
(21.7334 0.0201083 12.5101)
(21.8642 0.0344062 12.5097)
(22.0694 0.0499164 12.5093)
(22.352 0.0660141 12.5088)
(22.7113 0.0813116 12.5082)
(23.1466 0.09149 12.5076)
(23.6045 0.0964671 12.507)
(24.1008 0.0830796 12.5064)
(24.4297 0.0597059 12.5058)
(24.7103 0.0325944 12.5058)
(24.7092 -0.00813674 12.5056)
(24.6424 -0.0304959 12.5053)
(24.456 -0.0451693 12.505)
(24.2141 -0.0537532 12.5049)
(23.9293 -0.0582383 12.5047)
(23.6673 -0.0598259 12.5047)
(23.3336 -0.0580505 12.5048)
(23.1471 -0.0567533 12.5047)
(22.7198 -0.0545039 12.5045)
(17.9073 0.230527 10.3088)
(18.3926 0.347959 10.3062)
(18.0744 0.103379 10.2962)
(17.946 0.551655 10.2694)
(17.3546 0.704772 10.0969)
(16.2552 0.995219 9.89351)
(18.6052 0.157446 10.7262)
(18.7654 0.28897 10.7213)
(18.5769 0.383574 10.7137)
(18.3758 0.703956 10.6831)
(18.0074 1.03787 10.6374)
(17.3139 1.67646 10.5898)
(16.1096 3.08572 10.451)
(12.6098 5.65689 9.8402)
(-2.56223 0.337627 6.77096)
(-0.575075 -0.110309 8.26797)
(3.81113 -0.575048 9.30906)
(9.03094 -1.15014 9.68388)
(11.1505 -0.717896 9.96783)
(14.4229 -1.26719 10.2585)
(19.1569 0.169641 11.0467)
(19.1597 0.309772 11.0422)
(19.0536 0.570742 11.0288)
(18.872 0.90156 11.005)
(18.5711 1.41159 10.9752)
(18.1442 2.34173 10.9055)
(17.6213 4.31418 10.8194)
(17.3382 7.11063 10.5666)
(2.18909 -0.449353 6.98536)
(11.3706 -1.27393 7.59489)
(14.928 -1.78205 8.39416)
(17.7111 -2.13995 9.57762)
(19.6491 -1.87853 10.4701)
(19.7727 -1.64994 10.5836)
(20.2743 -1.30444 10.8953)
(19.4938 0.147799 11.2456)
(19.4976 0.344249 11.2416)
(19.4266 0.607433 11.2303)
(19.3043 0.973779 11.2106)
(19.1475 1.5191 11.1882)
(18.9512 2.45794 11.1231)
(19.112 4.15584 11.0503)
(19.3809 6.39083 10.9058)
(23.5622 9.51904 10.3952)
(25.1064 3.48365 9.72403)
(20.3533 -2.32856 10.1234)
(22.3726 -2.24441 10.818)
(22.216 -2.12646 10.6934)
(21.9261 -2.09641 10.6379)
(21.5683 -2.02202 10.7164)
(21.314 -1.68808 10.9493)
(21.2543 -1.56787 11.0821)
(21.1595 -1.27597 11.1764)
(19.7762 0.142037 11.4117)
(19.784 0.360514 11.408)
(19.7489 0.635994 11.398)
(19.693 1.01522 11.3814)
(19.6492 1.56638 11.3613)
(19.6898 2.41393 11.3092)
(20.0662 3.8546 11.2512)
(21.8041 5.35388 11.1407)
(24.2405 5.9245 10.9908)
(26.4493 3.35105 10.7999)
(27.8095 0.832327 10.6141)
(26.0121 -2.14651 10.6538)
(24.1936 -2.16706 10.9731)
(23.3769 -1.98488 11.0709)
(22.9865 -1.95641 11.0181)
(22.5432 -1.94966 10.9822)
(22.1069 -1.86571 11.027)
(21.7654 -1.59018 11.1725)
(21.6574 -1.46838 11.2565)
(21.4694 -1.25135 11.3304)
(20.0202 0.133467 11.5541)
(20.0342 0.365392 11.551)
(20.0319 0.64497 11.5424)
(20.0327 1.01944 11.5278)
(20.0871 1.5418 11.511)
(20.2641 2.30112 11.4657)
(20.8261 3.34804 11.4302)
(22.3564 4.66572 11.3292)
(24.8175 3.9172 11.2323)
(26.2944 2.63962 11.1555)
(26.7056 0.263635 11.1377)
(25.9033 -1.05877 11.1619)
(24.4843 -1.72585 11.2283)
(23.7958 -1.799 11.2778)
(23.3578 -1.81073 11.2681)
(22.8897 -1.77259 11.2547)
(22.4806 -1.68244 11.2819)
(22.11 -1.45672 11.3773)
(21.9743 -1.35992 11.4313)
(21.7177 -1.19774 11.4851)
(20.2349 0.126541 11.679)
(20.2558 0.362032 11.6763)
(20.2815 0.637562 11.6689)
(20.3328 0.995536 11.6566)
(20.4561 1.47679 11.6413)
(20.738 2.12732 11.6064)
(21.3325 2.93486 11.5717)
(22.691 3.77743 11.5149)
(24.5662 3.28043 11.4395)
(25.8436 2.09593 11.3891)
(26.236 0.375402 11.3691)
(25.5889 -1.0292 11.3582)
(24.7132 -1.47447 11.3932)
(24.0506 -1.59264 11.4439)
(23.5875 -1.63148 11.457)
(23.0947 -1.60794 11.4569)
(22.6967 -1.53441 11.4736)
(22.311 -1.34925 11.5376)
(22.1626 -1.26498 11.5754)
(21.8612 -1.13552 11.616)
(20.4263 0.11897 11.79)
(20.454 0.35034 11.7878)
(20.5037 0.615143 11.7813)
(20.596 0.949882 11.7711)
(20.7713 1.3812 11.7573)
(21.1125 1.93222 11.7296)
(21.7199 2.54755 11.7018)
(22.8803 3.11823 11.6602)
(24.3894 2.75947 11.6126)
(25.4666 1.81389 11.5731)
(25.8528 0.422981 11.5619)
(25.4452 -0.657051 11.5629)
(24.761 -1.13767 11.5663)
(24.1518 -1.32401 11.5966)
(23.7006 -1.40405 11.6127)
(23.2273 -1.40645 11.621)
(22.8545 -1.35564 11.6364)
(22.4703 -1.21645 11.6818)
(22.3127 -1.15151 11.7085)
(21.9802 -1.05401 11.7398)
(20.5992 0.110919 11.8901)
(20.633 0.332085 11.888)
(20.7028 0.580989 11.8824)
(20.8266 0.887518 11.8738)
(21.0404 1.26759 11.8623)
(21.4129 1.72487 11.8425)
(22.0158 2.2 11.8175)
(23.0144 2.59006 11.7867)
(24.2367 2.30948 11.7552)
(25.1608 1.52275 11.729)
(25.5201 0.449748 11.7183)
(25.2537 -0.480989 11.7178)
(24.7191 -0.958619 11.7226)
(24.1934 -1.16464 11.7439)
(23.7738 -1.25451 11.7575)
(23.3311 -1.26464 11.7643)
(22.9803 -1.225 11.7737)
(22.6018 -1.11072 11.8042)
(22.4357 -1.05587 11.823)
(22.0771 -0.976798 11.8466)
(20.7568 0.102348 11.9811)
(20.7962 0.308163 11.9791)
(20.882 0.537286 11.9743)
(21.0301 0.81253 11.9671)
(21.2716 1.14203 11.9577)
(21.6588 1.52155 11.9424)
(22.2415 1.88673 11.9236)
(23.1103 2.14754 11.9005)
(24.1236 1.92032 11.8771)
(24.9115 1.28671 11.8576)
(25.2478 0.42618 11.8492)
(25.0853 -0.338862 11.8498)
(24.6832 -0.755586 11.8509)
(24.2252 -0.961185 11.8655)
(23.8341 -1.05864 11.8758)
(23.4166 -1.0834 11.8833)
(23.0821 -1.06123 11.8917)
(22.7084 -0.978696 11.9143)
(22.5372 -0.937864 11.9281)
(22.1582 -0.878784 11.9457)
(20.9015 0.0926867 12.0645)
(20.9458 0.279944 12.0628)
(21.0445 0.486282 12.0589)
(21.211 0.728463 12.053)
(21.4704 1.00986 12.0453)
(21.8623 1.31959 12.0338)
(22.4196 1.60041 12.0187)
(23.1849 1.77389 12.001)
(24.0396 1.59048 11.9842)
(24.7194 1.07658 11.9701)
(25.0303 0.392571 11.9636)
(24.9415 -0.228498 11.9658)
(24.6284 -0.607383 11.9636)
(24.2354 -0.810981 11.974)
(23.8749 -0.913872 11.9828)
(23.4864 -0.946869 11.9899)
(23.1688 -0.935569 11.9959)
(22.8031 -0.872338 12.0119)
(22.6273 -0.838963 12.022)
(22.2336 -0.791096 12.0352)
(21.0353 0.0820894 12.1416)
(21.0837 0.24823 12.1402)
(21.1923 0.429632 12.137)
(21.3722 0.638339 12.1323)
(21.643 0.874309 12.1261)
(22.0333 1.12571 12.1168)
(22.5629 1.34085 12.1057)
(23.2445 1.45554 12.0929)
(23.9798 1.30626 12.0799)
(24.574 0.893233 12.0692)
(24.861 0.350327 12.0638)
(24.8232 -0.156698 12.0649)
(24.5841 -0.480669 12.0628)
(24.2476 -0.667101 12.0696)
(23.9135 -0.762213 12.079)
(23.5509 -0.796427 12.0843)
(23.2465 -0.792178 12.0884)
(22.8864 -0.746156 12.1001)
(22.7066 -0.720913 12.1077)
(22.3007 -0.685079 12.118)
(21.1595 0.0706875 12.2132)
(21.2113 0.213782 12.2121)
(21.3275 0.36878 12.2095)
(21.5169 0.54402 12.2058)
(21.794 0.737745 12.2009)
(22.1789 0.937355 12.1939)
(22.6827 1.10025 12.1852)
(23.2976 1.1768 12.1758)
(23.9434 1.05318 12.1665)
(24.4703 0.726432 12.1587)
(24.7346 0.303118 12.1545)
(24.7312 -0.107028 12.1554)
(24.5476 -0.375303 12.1538)
(24.2574 -0.540159 12.1583)
(23.9486 -0.625979 12.1651)
(23.6052 -0.662764 12.1698)
(23.3131 -0.666347 12.173)
(22.9603 -0.634577 12.1817)
(22.7783 -0.615786 12.1872)
(22.3654 -0.587985 12.1948)
(21.2755 0.058634 12.28)
(21.3299 0.177273 12.2792)
(21.4516 0.304918 12.2772)
(21.6476 0.447143 12.2744)
(21.9273 0.601781 12.2706)
(22.3056 0.756815 12.2653)
(22.7868 0.877615 12.2588)
(23.3495 0.929331 12.2521)
(23.9272 0.830396 12.2451)
(24.4056 0.57549 12.2393)
(24.6502 0.246507 12.2364)
(24.6693 -0.0717057 12.2373)
(24.5247 -0.287588 12.2357)
(24.2729 -0.424899 12.2381)
(23.9851 -0.500737 12.2423)
(23.6618 -0.533238 12.2467)
(23.3796 -0.538289 12.2494)
(23.0327 -0.515375 12.2559)
(22.8492 -0.501108 12.2601)
(22.4302 -0.480206 12.2658)
(21.3842 0.0460758 12.3428)
(21.4405 0.139252 12.3421)
(21.5662 0.238936 12.3407)
(21.7665 0.348719 12.3387)
(22.0478 0.466327 12.3356)
(22.4187 0.581237 12.3321)
(22.8836 0.668069 12.3275)
(23.3985 0.702425 12.3228)
(23.96 0.621924 12.3179)
(24.3422 0.441703 12.3142)
(24.655 0.201758 12.3119)
(24.6423 -0.0484906 12.3124)
(24.5234 -0.214695 12.3113)
(24.297 -0.322786 12.3112)
(24.0277 -0.381793 12.315)
(23.7197 -0.40929 12.3189)
(23.4457 -0.415638 12.3209)
(23.1041 -0.400857 12.3254)
(22.9195 -0.391143 12.3283)
(22.4974 -0.376451 12.3323)
(21.4866 0.0331415 12.4018)
(21.5442 0.100152 12.4014)
(21.6726 0.171529 12.4004)
(21.8756 0.24954 12.399)
(22.1577 0.331992 12.3969)
(22.5235 0.411638 12.3945)
(22.9721 0.470911 12.3915)
(23.4637 0.48927 12.3885)
(23.9703 0.43751 12.3853)
(24.3611 0.304918 12.3827)
(24.6015 0.13096 12.3814)
(24.641 -0.0232114 12.3818)
(24.5444 -0.144187 12.3812)
(24.3373 -0.223321 12.3811)
(24.0818 -0.267857 12.3836)
(23.7855 -0.289292 12.3862)
(23.5175 -0.295263 12.3875)
(23.18 -0.28586 12.3906)
(22.9949 -0.279167 12.3925)
(22.5703 -0.26887 12.3952)
(21.5833 0.0199523 12.4576)
(21.6417 0.0603194 12.4573)
(21.7719 0.103202 12.4567)
(21.9765 0.149879 12.4559)
(22.2588 0.1987 12.4548)
(22.6207 0.245775 12.4534)
(23.0588 0.27926 12.4517)
(23.5333 0.291814 12.45)
(24.0124 0.25785 12.4483)
(24.3954 0.183771 12.4469)
(24.6279 0.0774397 12.4462)
(24.6648 -0.0120273 12.4466)
(24.5822 -0.0837268 12.4462)
(24.3884 -0.131185 12.4461)
(24.143 -0.158091 12.448)
(23.8553 -0.17167 12.4497)
(23.5916 -0.175782 12.4503)
(23.2569 -0.170831 12.4524)
(23.0714 -0.167259 12.4536)
(22.6457 -0.161683 12.4553)
(21.6748 0.00664608 12.5103)
(21.7334 0.0201071 12.5101)
(21.8642 0.0343945 12.5097)
(22.0694 0.0499083 12.5093)
(22.352 0.0659463 12.5087)
(22.7113 0.0812434 12.5081)
(23.1466 0.0914148 12.5074)
(23.6045 0.0964532 12.5068)
(24.1008 0.0830792 12.5062)
(24.4297 0.0597432 12.5057)
(24.7104 0.0325941 12.5056)
(24.7093 -0.00798805 12.5056)
(24.6423 -0.0305174 12.5054)
(24.4559 -0.0453215 12.505)
(24.214 -0.0535768 12.5049)
(23.9287 -0.0582164 12.5048)
(23.6672 -0.0596271 12.5047)
(23.3335 -0.0578767 12.5049)
(23.1471 -0.0565823 12.5048)
(22.72 -0.0544224 12.5047)
(17.9105 0.231586 10.3096)
(18.3922 0.348506 10.3039)
(18.0766 0.105831 10.2984)
(17.9547 0.549275 10.2782)
(17.3584 0.69517 10.0998)
(16.3608 1.02146 9.95143)
(18.6055 0.157633 10.7275)
(18.7619 0.290909 10.7193)
(18.5758 0.384501 10.7135)
(18.3776 0.702712 10.6869)
(18.007 1.03774 10.6376)
(17.316 1.67655 10.5896)
(16.1088 3.10622 10.463)
(12.6801 5.68078 9.77768)
(-2.48536 0.297682 6.46443)
(-0.571158 -0.0708693 7.8589)
(3.52736 -0.450213 9.02992)
(9.09602 -1.19449 9.53788)
(11.2449 -0.745614 9.9418)
(14.441 -1.32543 10.25)
(19.1569 0.169367 11.0464)
(19.159 0.311075 11.0413)
(19.0533 0.571717 11.0283)
(18.8719 0.901805 11.0048)
(18.5704 1.41183 10.9734)
(18.1519 2.34644 10.9102)
(17.6215 4.31153 10.8153)
(17.3227 7.13468 10.5518)
(2.77643 -0.874516 8.42682)
(11.5747 -1.40601 8.01349)
(14.5014 -1.62934 8.29671)
(17.1681 -2.00061 9.23404)
(19.6271 -1.8505 10.4079)
(19.7455 -1.6795 10.5018)
(20.2939 -1.34886 10.879)
(19.4938 0.14776 11.2454)
(19.4972 0.344518 11.2407)
(19.4264 0.607766 11.2294)
(19.3044 0.973929 11.2099)
(19.1465 1.51949 11.1867)
(18.957 2.45795 11.1261)
(19.1067 4.15089 11.0494)
(19.3592 6.38912 10.8915)
(23.4864 9.56205 10.4574)
(25.3249 3.48259 9.87056)
(20.3754 -2.50624 10.0512)
(22.4408 -2.37464 10.8751)
(22.1619 -2.13925 10.7754)
(21.8759 -2.04405 10.6701)
(21.5763 -1.96059 10.706)
(21.3365 -1.68172 10.9121)
(21.2793 -1.58988 11.0444)
(21.1746 -1.3159 11.1642)
(19.7761 0.14204 11.4115)
(19.7838 0.360581 11.4072)
(19.7488 0.636093 11.3973)
(19.693 1.0152 11.3807)
(19.6482 1.56634 11.3598)
(19.695 2.4127 11.3124)
(20.0632 3.85315 11.2486)
(21.7938 5.35574 11.1397)
(24.2665 5.90585 10.9857)
(26.4723 3.32167 10.8238)
(27.7908 0.817643 10.6635)
(26.1097 -2.00399 10.6317)
(24.1963 -2.16821 10.9399)
(23.3782 -2.0465 11.0969)
(22.9444 -1.96161 11.06)
(22.5089 -1.90994 11.0005)
(22.123 -1.82705 11.0209)
(21.7868 -1.58709 11.1521)
(21.6769 -1.48497 11.2327)
(21.4788 -1.27925 11.3223)
(20.0201 0.133442 11.554)
(20.034 0.365363 11.5503)
(20.0318 0.644993 11.5418)
(20.0327 1.01945 11.5273)
(20.0865 1.54173 11.5098)
(20.2671 2.29964 11.4682)
(20.8248 3.34758 11.4288)
(22.3513 4.66513 11.3307)
(24.8185 3.91882 11.2392)
(26.3035 2.64033 11.1685)
(26.668 0.206712 11.1288)
(25.8961 -1.04158 11.1508)
(24.5583 -1.68678 11.2173)
(23.8036 -1.82488 11.2864)
(23.332 -1.82655 11.2862)
(22.8629 -1.76249 11.2629)
(22.4855 -1.66447 11.2799)
(22.1226 -1.45491 11.3662)
(21.9877 -1.36873 11.4182)
(21.7235 -1.21422 11.4815)
(20.2348 0.126525 11.6788)