/*--------------------------------*- C++ -*----------------------------------*\
  =========                 |
  \\      /  F ield         | OpenFOAM: The Open Source CFD Toolbox
   \\    /   O peration     | Website:  https://openfoam.org
    \\  /    A nd           | Version:  10
     \\/     M anipulation  |
\*---------------------------------------------------------------------------*/
FoamFile
{
    format      ascii;
    class       volScalarField;
    location    "2000";
    object      k;
}
// * * * * * * * * * * * * * * * * * * * * * * * * * * * * * * * * * * * * * //

dimensions      [0 2 -2 0 0 0 0];

internalField   nonuniform List<scalar> 
8792
(
0.590419
1.7961
1.80947
1.7266
1.66825
1.68288
0.174034
0.907533
1.34554
1.50209
1.59195
1.60892
1.52981
1.48427
0.121313
0.468769
0.9349
1.23602
1.4105
1.49518
1.54265
1.71064
0.0910199
0.234571
0.624274
0.988981
1.24128
1.39258
1.48366
1.60363
2.02028
2.4557
0.0836316
0.114101
0.388106
0.739648
1.04905
1.26668
1.41124
1.57562
1.80062
2.13547
1.69433
1.90978
0.544
1.64047
1.69367
1.61427
1.56301
1.53812
0.171353
0.881933
1.3264
1.48954
1.58243
1.59591
1.50257
1.28564
0.120811
0.467437
0.934294
1.23629
1.41095
1.49493
1.53931
1.67037
0.090913
0.233266
0.622956
0.988215
1.24086
1.39155
1.48358
1.59225
1.96046
2.23188
0.0836079
0.113467
0.387127
0.73879
1.0485
1.26516
1.41007
1.57593
1.7929
2.11122
1.69418
1.90948
0.532579
1.57039
1.62471
1.5664
1.54358
1.52424
0.171067
0.881969
1.32598
1.48593
1.57825
1.5864
1.4726
1.14948
0.120476
0.467103
0.934601
1.23703
1.41168
1.49533
1.53658
1.62519
0.0908797
0.232936
0.623002
0.988619
1.24126
1.39201
1.48425
1.59263
1.92151
2.24315
0.0836006
0.113289
0.387174
0.739091
1.04889
1.26548
1.41054
1.57677
1.79297
2.09775
1.69453
1.90954
0.525571
1.53453
1.5906
1.55165
1.59205
1.57037
0.170641
0.881201
1.32453
1.48105
1.57252
1.57643
1.44863
1.09542
0.120117
0.466761
0.934864
1.23761
1.4122
1.49543
1.53365
1.58397
0.0908362
0.232546
0.622938
0.988876
1.24154
1.39234
1.48451
1.59053
1.89488
2.32173
0.083592
0.11309
0.387162
0.739294
1.04917
1.26572
1.41091
1.57744
1.79115
2.0848
1.69476
1.90919
0.521593
1.5273
1.58527
1.55992
1.65073
1.62522
0.170165
0.879739
1.32222
1.47557
1.56642
1.56727
1.43035
1.09502
0.119755
0.466423
0.935075
1.23804
1.41254
1.49523
1.53051
1.55106
0.0907835
0.232089
0.622746
0.989002
1.24171
1.39257
1.48443
1.58657
1.88249
2.40294
0.0835815
0.112856
0.387049
0.739364
1.04933
1.2659
1.4112
1.57789
1.7883
2.07421
1.69485
1.90848
0.51975
1.5388
1.59891
1.58127
1.70796
1.67565
0.169675
0.87778
1.3194
1.47038
1.56078
1.5598
1.41752
1.13038
0.119404
0.466115
0.935266
1.23838
0.0907258
0.231597
0.622483
0.989058
0.0835694
0.112594
0.386863
0.739342
0.519223
1.55979
1.52746
1.47916
1.88081
1.59522
1.55156
1.70922
1.41369
1.49421
1.53179
1.69823
1.48054
1.57805
1.9848
1.57433
1.7882
1.69457
0.542788
1.7809
1.8211
1.79714
1.95018
1.87046
0.166292
0.883771
1.33699
1.49924
1.59016
1.6042
1.54923
1.71675
0.123248
0.487189
0.956654
1.25143
1.42023
1.49828
1.53936
1.72436
0.0914363
0.244178
0.641018
1.00506
1.25355
1.39968
1.48584
1.5983
2.00306
2.70285
0.0837248
0.117884
0.399091
0.753096
1.06126
1.27502
1.41626
1.58004
1.79893
2.13235
1.70264
1.91849
1.65879
1.55965
1.55748
1.54506
1.63743
1.5514
1.48591
1.40863
1.46128
1.21397
1.3688
1.20026
1.6435
1.3284
1.54116
2.67137
1.6516
1.87105
1.69026
2.15692
1.63941
1.83899
2.14396
3.06698
1.99097
2.25969
2.33397
2.25889
2.23974
2.28289
1.15262
1.84389
1.06316
1.60086
1.83868
1.771
1.60999
1.57847
1.76584
1.88554
1.5747
1.6934
1.8963
1.84896
1.71005
1.84182
1.79715
1.68284
1.6837
1.58666
1.67875
1.67218
1.6674
1.70738
1.66393
1.72175
1.60285
1.59053
1.71049
1.71456
1.00506
1.40297
1.09583
1.23804
1.48475
1.50248
1.57188
1.51946
1.45686
1.50434
1.56523
1.52573
1.54773
1.3915
1.56001
1.49996
1.76808
2.18321
2.42447
2.36937
1.90499
2.10254
1.97124
2.20784
1.89568
2.08441
2.43328
2.67577
2.41805
2.33867
2.33192
2.39153
2.4488
1.85118
1.69611
1.62434
1.75942
1.68876
1.5768
1.58245
1.60649
1.53411
1.52692
1.899
1.44277
1.81823
1.61515
1.69407
2.49458
1.64627
1.88615
1.72566
2.65889
1.64213
1.88935
2.14167
2.15068
2.99316
2.32082
2.35083
2.60428
2.32028
2.34269
1.58197
1.83278
1.54884
1.61333
1.70617
1.45327
1.61089
0.935815
1.11463
1.15265
1.3162
1.40738
1.24931
1.00978
1.32011
1.3801
1.01044
1.53667
1.19663
1.85673
1.62722
1.42043
1.80983
1.83204
2.10492
2.23592
1.75211
2.06425
1.81638
2.32435
2.33046
2.08882
2.30243
2.32167
2.29896
2.53256
2.33638
2.52541
2.37266
1.74984
0.298953
0.870463
0.549435
1.60226
0.292649
0.843354
1.80603
1.26733
1.44725
1.66523
1.70772
1.23831
1.42464
1.74701
1.55404
1.59714
1.7163
1.66809
1.53585
1.57996
1.67514
1.60952
1.62325
1.63149
1.59826
1.59021
1.62509
1.6068
1.66564
1.67731
1.65193
1.61845
1.61897
1.67077
1.17053
1.00693
1.77822
1.55058
1.72366
1.5933
1.76616
1.54872
1.70896
2.22206
1.99243
2.10748
2.11895
2.20834
1.9841
2.09543
1.09164
2.08303
1.15637
1.96851
2.08965
2.02378
1.95656
1.8765
2.01823
1.96691
1.86689
1.88729
1.93923
1.88433
1.84332
1.83672
1.89581
1.71048
1.71582
1.70568
1.78065
1.71364
1.71331
1.54744
1.50573
1.58389
1.55118
1.53799
1.50434
1.59013
2.64509
1.90003
2.12944
2.01819
2.37904
1.90936
2.10531
1.62312
1.57248
1.36894
1.63849
1.36591
1.45119
1.49772
1.46178
1.42565
1.46591
1.40432
0.892909
1.1997
1.35553
1.21675
1.10929
1.03646
1.18619
1.50119
1.60949
1.69552
1.60201
1.5567
1.64387
1.60408
2.4278
2.56059
1.97163
2.04627
2.55017
2.63458
2.57521
2.09431
2.02682
1.81277
1.89051
1.83755
1.86241
1.93071
1.79802
1.84501
2.73806
3.15171
2.88684
3.02972
2.95907
2.34256
2.2735
2.31217
2.26094
2.35809
1.82923
1.11784
1.73503
1.87108
1.70584
1.76811
1.81002
1.70144
1.6807
1.7895
1.65168
1.66383
1.76199
1.64983
1.64643
1.77591
1.79177
1.68795
1.8633
1.8114
1.79412
1.76348
1.79981
2.01094
1.75246
1.75521
1.74662
1.75138
1.7068
1.65334
1.76215
1.59421
1.64859
1.65382
1.65802
1.60823
1.60396
1.65569
1.0423
1.26469
1.26681
1.38028
1.08744
1.24488
1.24274
1.00144
1.13089
1.21737
1.24852
0.976511
1.12582
1.21841
1.49592
1.81951
2.16622
1.54044
2.0582
1.59301
1.61994
1.62609
1.83748
1.76091
1.73019
1.66171
1.7505
2.54607
2.14128
2.69511
2.55306
2.72237
2.30434
2.38049
2.30584
2.2345
2.34556
2.16396
2.17406
2.28995
2.43761
2.75
2.39471
2.42599
2.31759
2.38694
1.74344
1.71463
1.70502
1.71269
1.80242
1.75816
1.7235
1.84272
1.60114
1.64716
1.66329
1.64401
1.78229
1.58567
1.45756
1.33583
1.30789
1.44148
1.13489
1.08044
1.34735
1.43289
1.42827
1.41913
1.51793
1.2876
1.4326
1.40259
1.61144
1.86734
2.03691
1.60873
2.17646
1.63524
1.65554
1.96243
1.52545
1.61372
2.03924
1.89653
2.12863
1.81735
1.83343
2.42327
1.92065
2.11074
2.24726
2.49927
2.43296
2.37207
2.17132
2.49427
2.51203
2.35602
2.65715
2.54511
2.40747
2.44028
2.43484
2.59333
2.51373
2.41175
2.43976
2.44318
2.61469
1.77094
1.81815
1.61651
1.60399
1.78239
1.07304
0.932978
1.0623
1.271
1.17067
1.26543
1.36866
1.1345
1.15335
1.03413
1.24898
1.34683
1.15232
0.986446
1.33713
1.34993
1.23734
1.46658
1.35769
1.69699
2.37539
2.30224
2.24139
2.39373
2.39553
2.21506
2.34824
3.03372
2.89318
2.61549
2.26276
2.76237
2.64233
2.78671
2.60675
2.446
2.43028
2.56614
1.80981
1.7446
1.76536
1.59192
1.54391
1.5031
1.6384
1.81086
1.7773
1.77939
1.69128
1.68437
1.66317
1.71585
1.69175
1.67194
1.65749
1.68734
1.69769
1.67815
1.70287
1.77447
1.67541
1.77278
1.64998
1.63378
1.76163
1.78481
1.72163
0.280814
0.843916
0.595584
1.76119
0.305652
0.901841
1.81867
1.25824
1.44563
1.80583
1.81086
1.29791
1.46896
1.81381
1.55699
1.60248
1.81129
1.77395
1.57058
1.60935
1.93218
1.629
1.66193
1.75476
1.71084
1.63471
1.63072
1.81577
1.85385
1.84228
1.76228
1.75956
1.80412
1.8894
1.78414
1.84257
1.83774
1.75904
1.75883
1.78054
1.84205
1.71408
1.7677
1.77314
1.69921
1.70184
1.7125
1.7699
1.70499
1.76099
1.76511
1.69587
1.6952
1.70278
1.76059
1.98666
1.74662
1.86781
1.72518
1.99371
1.90516
1.88511
1.89449
1.87197
1.9335
1.95205
1.85624
1.91337
1.9265
1.61994
1.68902
1.54511
1.15383
1.46786
1.39284
1.20703
1.80253
1.76969
1.76209
1.60689
1.68455
1.65307
1.63601
1.78829
1.71781
1.75746
1.67152
1.70031
1.67551
1.69078
1.67079
1.77377
1.66002
1.63588
1.75533
1.67827
1.68669
1.8202
1.12738
1.80972
1.99321
2.04556
2.02847
1.92198
2.04041
2.00822
1.89657
1.9619
1.98363
1.86217
1.95143
1.93541
1.87668
1.90774
1.89669
1.85075
1.88914
1.85035
1.75736
1.84785
1.97417
1.84709
1.87474
1.79547
2.01462
1.78795
2.02586
1.88617
1.75153
1.81149
1.73439
1.8105
1.73609
1.75198
1.81122
1.72854
1.78784
1.7163
1.78773
1.71437
1.73012
1.78689
1.69761
1.76043
1.6929
1.75612
1.69025
1.69953
1.75409
1.78473
1.78102
1.70658
1.77314
1.72004
1.72853
1.79211
1.86263
1.85799
1.85533
1.81597
1.76957
1.82143
1.86304
2.05281
1.92395
1.05098
1.569
1.03619
1.53812
1.08477
1.61615
1.66243
1.57828
0.290952
0.838303
0.534866
1.52641
0.290081
0.835959
1.59031
1.04375
1.57674
1.03402
1.54411
1.03151
1.58957
1.03926
1.56811
1.57025
1.51317
0.289193
0.833499
0.526983
1.48591
0.288309
0.830884
1.03166
1.60839
1.03392
1.66908
1.5684
1.0326
1.57065
1.0318
1.57947
1.57445
1.57975
1.55077
1.54827
1.52095
1.54767
1.66066
1.51801
1.61632
1.67889
1.63177
1.68462
1.23342
1.41947
1.58476
1.62974
1.23134
1.41633
1.64921
1.53113
1.57135
1.63874
1.60639
1.5279
1.56421
1.57433
1.58257
1.61904
1.57489
1.54697
1.57585
1.61305
1.65044
1.66693
1.65984
1.53916
1.61219
1.66085
1.65241
1.52687
1.62661
1.53065
1.51956
1.44991
1.6166
1.51007
1.44906
1.18401
1.40426
1.0768
1.22023
1.20831
1.48545
1.1744
1.43439
2.13275
1.6323
1.83144
1.64778
2.04464
1.6268
1.82098
1.96219
1.91884
2.17843
1.89257
2.07682
1.93049
2.1734
1.88934
2.06922
2.22667
2.27299
2.22727
2.2147
2.24291
1.55331
1.52591
1.59523
1.56737
1.52281
1.61511
1.56345
1.63553
1.62779
1.63777
1.61596
1.22881
1.41275
1.54045
1.58838
1.22586
1.4088
1.59689
1.52412
1.55732
1.596
1.58045
1.5199
1.55075
1.54989
1.56948
1.60703
1.55266
1.57834
1.56351
1.6012
1.61088
1.65438
1.64541
1.57803
1.62696
1.64799
1.63909
1.43322
1.60765
1.49249
1.55656
1.4297
1.59992
1.47843
1.39133
1.05163
1.35932
1.00609
1.20328
1.20824
1.39491
1.10286
1.36606
2.02685
1.62073
1.8093
1.60371
2.00448
1.61413
1.79769
1.9115
1.90346
2.18867
1.88557
2.06156
1.90008
2.24308
1.88138
2.0544
2.20436
2.23377
2.30109
2.1961
2.21118
1.61287
1.58513
1.67029
1.64149
1.58086
1.64645
1.63619
1.68252
1.64606
1.67507
1.48066
0.287419
0.828138
0.522337
1.47445
0.28655
0.825341
1.58343
1.2226
1.40468
1.52691
1.57856
1.21918
1.40051
1.57863
1.51547
1.54466
1.58444
1.58093
1.51098
1.53915
1.58987
1.55809
1.59583
1.55624
1.62683
1.55337
1.59108
1.63641
1.64207
1.6337
1.63601
1.66653
1.63688
1.62934
1.44043
1.59358
1.4679
1.61175
1.49146
1.5887
1.46067
1.35112
0.999393
1.3323
0.99855
1.21703
1.26121
1.34644
1.091
1.33491
2.00499
1.60689
1.78681
1.56639
2.0222
1.59965
1.77686
1.90408
1.91286
2.26248
1.87702
2.04821
1.88453
2.32062
1.87277
2.04325
2.19022
2.2059
2.38333
2.18675
2.19625
1.03508
1.68983
1.03923
1.75086
1.69012
1.66064
1.749
1.71685
1.65501
1.69516
1.71033
1.73315
1.68549
1.71761
1.47512
0.285685
0.822507
0.52004
1.48266
0.28484
0.819725
1.5798
1.21569
1.39644
1.53483
1.5898
1.21226
1.39261
1.58393
1.50662
1.53433
1.59418
1.59731
1.50251
1.53025
1.63943
1.54944
1.58712
1.57508
1.67723
1.54637
1.58403
1.67679
1.6326
1.62612
1.69413
1.70725
1.62934
1.62403
1.51174
1.5853
1.45651
1.66365
1.57381
1.58334
1.45512
1.3281
1.00377
1.32044
1.03248
1.28063
1.34722
1.33053
1.11883
1.33253
2.03169
1.59233
1.76804
1.53821
2.06657
1.58535
1.76061
1.91713
1.93269
2.33923
1.86882
2.03968
1.8803
2.39166
1.86532
2.03752
2.18494
2.19497
1.04074
1.77029
1.04536
1.82453
1.76796
1.73482
1.82134
1.7852
1.72803
1.74556
1.7778
1.78107
1.72837
1.75986
1.48651
0.284003
0.817007
0.519234
1.50109
0.283192
0.814438
1.59485
1.20899
1.3891
1.5539
1.61326
1.20596
1.386
1.60301
1.4988
1.52697
1.61652
1.62209
1.49556
1.5245
1.68947
1.54419
1.58184
1.60162
1.72487
1.54288
1.58057
1.71709
1.62714
1.62305
1.5938
1.58276
1.45623
1.31965
1.04555
1.3709
1.34003
1.04689
1.84106
1.83778
1.80069
1.50674
0.282396
0.812024
1.62019
1.20324
1.38337
1.8954
1.64038
1.56658
1.61478
1.95918
1.70507
1.8341
1.68799
2.45829
1.612
1.8583
2.11164
1.9833
1.88752
1.90583
1.71077
1.96087
1.90436
1.70736
1.7135
1.8957
1.69229
1.64446
1.87944
1.87998
1.69527
1.64805
1.56932
1.61779
1.58756
1.63217
1.96167
1.93581
1.84693
1.72985
1.8652
2.46103
1.61854
1.8643
1.71317
2.4655
1.62462
1.87459
2.11331
2.12562
2.65217
1.88945
2.11796
1.99324
2.65114
1.89225
2.12084
1.81183
1.79468
1.82199
1.63157
1.50265
1.61879
1.51948
1.82869
1.82784
1.83304
1.72824
1.68046
1.71983
1.68941
1.78013
1.7931
1.77347
1.71529
1.70321
1.71687
1.70561
1.78948
1.9336
1.78197
1.90803
1.79785
1.89134
1.77599
1.7378
1.84091
1.74159
1.85002
1.74267
1.81279
1.74118
1.51065
1.78174
1.72412
1.57524
1.87253
2.02171
1.67852
1.62001
2.12376
1.6078
1.64534
2.60471
2.53639
2.47086
2.64986
2.42721
2.66787
2.47739
2.61618
2.42849
1.68607
1.58026
1.55072
1.66257
1.57277
1.68677
1.66196
1.55941
1.57638
1.59105
1.36799
1.63953
1.41247
1.53495
1.09408
1.18379
1.16187
1.13396
0.974126
1.00867
1.38183
1.46892
1.42382
1.47061
1.43307
1.47525
1.37853
1.13124
1.23376
1.02406
1.31684
1.0101
1.32362
1.10535
1.14025
1.46454
1.3672
1.27113
1.43399
1.3483
1.46847
1.41419
1.30244
1.54909
1.59245
1.34017
1.79212
2.19986
1.65366
1.94403
1.70095
2.00129
1.76637
2.35331
2.39025
2.03389
2.23662
2.21878
2.26375
2.26616
2.48593
2.50075
2.39722
2.29828
2.26542
2.31066
2.29801
2.35155
2.35997
2.28038
2.46284
2.31874
2.48672
2.36231
2.23612
1.64618
1.64463
1.6944
1.65073
1.59644
1.63519
1.61329
1.58741
1.62331
1.60877
1.57778
1.61048
1.73792
1.61727
1.65151
1.75384
1.69482
1.73672
1.75925
1.77412
1.75411
1.61626
1.57509
1.71577
1.60188
1.73987
1.7307
1.71431
1.70441
1.72635
1.72884
1.60585
1.6289
1.70528
2.25297
2.12069
2.27473
2.17197
2.30924
2.14355
2.12011
1.66805
1.80507
1.66759
1.56726
1.68033
1.77958
1.5984
1.35676
1.72128
1.54163
1.66752
1.601
1.56143
1.63314
1.59477
1.55901
1.40218
1.73816
1.4949
1.50724
1.52523
1.4524
1.44155
1.60294
1.88994
2.30057
2.33179
2.05669
1.84094
1.98881
2.13314
2.43707
1.83271
1.9552
2.14279
2.53507
2.55248
2.16067
2.51797
2.53902
2.77601
2.72592
2.44416
2.76729
2.71438
2.45856
2.71067
2.6802
1.63706
1.45883
1.49174
1.11931
1.32227
1.34346
1.0988
1.69859
1.69334
1.72465
1.55808
1.45146
1.47149
1.54183
1.73566
1.69622
1.72557
1.58384
1.61592
1.62981
1.56757
1.7437
1.72232
1.74838
1.67337
1.63218
1.64599
1.66108
1.69088
1.70407
1.72866
1.65665
1.64586
1.65891
1.64404
1.65124
1.62401
1.64123
1.66733
1.63473
1.65462
1.65002
1.62818
1.56707
1.71003
1.59895
1.73303
1.66216
1.64427
1.78115
1.10407
1.79297
2.03725
2.08101
2.04368
2.06368
2.08331
2.05447
2.04141
2.01111
2.03098
2.00687
2.00549
1.98954
1.98626
1.93857
1.96138
1.90036
1.91428
1.87668
1.96938
1.93226
1.77163
1.87356
1.77035
1.77254
1.91203
1.77563
1.88233
1.69496
1.7869
1.79726
1.79482
1.83985
1.82203
1.7827
1.74624
1.82644
1.8043
1.75769
1.75496
1.76058
1.81724
2.30529
2.38838
2.61215
2.31028
2.3909
2.15359
2.14742
2.32532
2.40443
2.55135
2.32085
2.40317
2.17009
2.17084
1.53551
1.73822
1.55776
1.1293
1.41482
1.10845
1.43317
1.80743
1.82549
1.81652
1.63164
1.67921
1.61976
1.68856
1.81624
1.80996
1.8178
1.708
1.72328
1.70077
1.72645
1.74314
1.77951
1.89705
1.74108
1.77745
1.67852
1.67848
1.7166
1.78947
1.83409
1.73151
1.78408
1.6847
1.6852
1.61422
1.54904
1.59744
1.53925
1.59157
1.59055
1.43775
1.31713
1.08806
1.55891
1.42149
1.07928
1.31653
1.5417
1.3947
1.40722
1.07207
1.31378
1.3156
1.06502
1.59889
1.55593
1.61016
1.57196
1.6378
1.62326
1.38392
1.31126
1.05858
1.50203
1.37485
1.05224
1.30813
1.49299
1.36159
1.36743
1.04655
1.30109
1.30474
1.04104
1.58539
1.03215
1.59203
1.65342
1.62811
1.66978
1.03293
1.60656
1.59914
1.64843
1.70357
1.68657
1.66907
1.44004
1.53532
1.61976
1.43106
1.53227
1.64828
1.70031
1.62278
1.65347
1.64666
1.67332
1.68031
1.61403
1.60785
1.61957
1.63693
1.62429
1.59874
1.59303
1.60556
1.55356
1.6947
1.71039
1.69011
1.54771
1.54039
1.67409
1.53028
1.64168
1.64053
1.61879
1.52552
1.51475
1.62134
1.1811
1.13716
1.12028
1.16603
1.43643
1.49699
1.55942
1.48683
1.4092
1.48807
1.55027
1.23008
1.39654
1.37073
1.32272
1.24268
1.18706
1.35698
2.32822
2.3118
2.24254
2.27763
2.32951
2.3008
2.21923
2.23305
2.24694
1.40682
1.55824
1.39917
1.51332
1.59972
1.51877
1.58815
1.61708
1.63329
1.58864
1.61292
1.62448
1.62205
1.58054
1.58262
1.56228
1.57196
1.55988
1.59162
1.55617
1.56308
1.62965
1.54144
1.62415
1.55246
1.64152
1.55164
1.61176
1.5542
1.50482
1.57454
1.53253
1.56684
1.51047
1.56353
1.07511
1.13185
1.07781
1.12981
1.38449
1.48024
1.53946
1.45987
1.36341
1.47278
1.52749
1.22744
1.14777
1.26062
1.12945
1.23603
1.15474
1.2362
2.30132
2.30534
2.2311
2.26332
2.18486
2.26136
2.24183
2.28397
2.17274
1.37923
1.53039
1.49226
1.56675
1.49721
1.56341
1.37354
1.59241
1.60137
1.5598
1.58695
1.59777
1.59817
1.55403
1.55893
1.54872
1.54434
1.55195
1.56327
1.5492
1.54016
1.60366
1.59496
1.58752
1.60656
1.60718
1.61049
1.58328
1.52824
1.54286
1.54464
1.58423
1.53164
1.55581
1.54209
1.11351
1.15113
1.09866
1.16434
1.34605
1.46612
1.51577
1.43879
1.33217
1.45989
1.50416
1.26451
1.20412
1.18476
1.09095
1.24895
1.22692
1.17299
2.32693
2.33559
2.22491
2.34893
2.15826
2.34253
2.22216
2.36929
2.15889
1.47671
1.56262
1.36009
1.52891
1.47985
1.56484
1.35675
1.57763
1.59761
1.54097
1.58723
1.58031
1.59982
1.53795
1.55158
1.55741
1.53356
1.56429
1.55214
1.5618
1.53294
1.60347
1.65671
1.57903
1.66545
1.60156
1.6718
1.58024
1.53066
1.59518
1.54314
1.63839
1.52813
1.60804
1.54577
1.19309
1.21494
1.17075
1.23474
1.32167
1.45438
1.49364
1.42326
1.31433
1.44933
1.48391
1.35722
1.31009
1.1534
1.10093
1.33052
1.3396
1.15064
2.36268
2.37161
2.2522
2.42503
2.172
2.42201
2.24355
2.4418
2.17905
1.46924
1.57726
1.35017
1.54334
1.47026
1.58279
1.34904
1.57313
1.61201
1.5328
1.60425
1.5733
1.61741
1.53232
1.55608
1.57844
1.5351
1.58775
1.55406
1.58474
1.53695
1.61866
1.71466
1.58859
1.72154
1.61377
1.72815
1.59291
1.54924
1.64525
1.55807
1.6872
1.54359
1.65689
1.56335
1.29072
1.29955
1.26569
1.32214
1.31008
1.44491
1.47563
1.47422
1.43113
1.15423
1.14293
1.44395
1.46016
1.15817
1.46967
1.60219
1.34847
1.56598
1.46881
1.60913
1.34918
1.54499
1.56989
1.4879
1.5799
1.74185
1.8589
1.73792
1.88127
1.74099
1.85898
1.73878
1.78029
1.82202
1.77956
1.82336
1.57894
1.49378
1.58869
1.56054
1.58678
1.49854
1.59478
2.20665
2.09659
1.66708
1.71389
2.20214
2.09931
1.67278
2.60929
2.61119
1.56665
1.56015
1.54686
1.55941
1.53213
1.54081
1.55008
1.53475
1.53665
1.52259
1.52979
1.53134
1.55138
1.52929
1.53335
1.5905
1.63775
1.57216
1.51973
1.52253
1.52407
1.6235
1.55944
1.56218
1.66527
1.65623
1.64465
1.75159
1.74465
1.64095
1.62384
1.6313
1.7345
1.73846
1.67252
1.60871
1.55709
1.5482
1.66415
1.6518
1.60299
1.60125
1.41462
1.4228
1.52845
1.61362
1.62986
1.52384
1.53965
1.64586
1.61675
1.59003
1.63322
1.59679
1.53109
1.68327
1.63612
1.63471
1.62588
1.63245
1.66443
1.62704
1.63943
1.65501
1.64675
1.59685
1.66251
1.6055
1.6319
1.61725
1.6183
1.63304
1.60943
1.64772
1.61811
1.60865
1.54147
1.69154
1.62878
1.61309
1.55797
1.5232
1.67281
1.61262
1.58569
1.57031
1.58172
1.58058
1.59321
1.60137
1.59865
1.5491
1.50187
1.63972
1.51051
1.65572
1.58499
1.68538
1.58638
1.68496
1.66532
1.63083
1.57435
1.66667
1.67204
1.53996
1.53542
1.63865
1.53449
1.65557
1.65555
1.64829
1.61841
1.56848
1.63528
1.56847
1.65027
1.63303
1.55863
1.3272
1.51622
1.49676
1.50119
1.52407
1.28889
1.59933
1.51962
1.50285
1.58758
1.50599
1.60357
1.58154
1.47941
1.47361
1.47849
1.23721
1.49675
1.25903
1.46378
1.01533
0.999284
1.40905
1.46174
1.36531
1.34676
1.43344
1.39226
1.44838
1.0202
1.30088
1.0694
1.02818
1.14519
0.998553
1.27571
1.1013
1.13878
1.15038
1.08659
0.982921
0.971094
1.32711
1.41848
1.35785
1.41864
1.37501
1.43389
1.30774
0.991447
1.10814
0.967377
1.22455
0.97955
1.24997
0.962757
1.21993
1.21492
1.50424
1.34316
1.33279
1.46281
1.28416
1.20537
1.1476
1.28845
1.16129
1.32097
1.25378
1.3195
1.41451
1.43523
1.3183
1.60848
1.9049
1.74127
1.71313
2.09934
1.56797
1.87536
1.68652
2.06874
1.50129
1.83082
1.53151
1.85142
1.66104
2.22503
2.19172
1.94296
2.21873
2.18039
2.48133
2.47748
2.30012
2.30308
1.92901
2.21699
2.1863
2.21629
2.18131
2.48137
2.47738
2.08395
2.24985
2.10109
2.08207
2.16471
2.06157
2.22449
2.06549
2.16379
2.0383
2.18352
2.04704
2.20274
2.05013
2.4491
2.29117
2.20331
2.18113
2.43955
2.27655
2.2768
2.21825
2.24637
2.20067
2.2353
2.2219
2.25658
2.16706
2.43899
2.28257
2.43608
2.27457
2.15889
1.56396
1.53975
1.55033
1.53481
1.53612
1.54513
1.57882
1.58247
1.56533
1.55054
1.57629
1.55965
1.52746
1.53281
1.53751
1.56271
1.61849
1.57069
1.54697
1.56807
1.55166
1.62566
1.59642
1.58245
1.6213
1.62796
1.62252
1.73327
1.73457
1.63154
1.63314
1.62672
1.74331
1.73807
1.51496
1.60255
1.58324
1.60449
1.52294
1.59067
1.57627
1.54831
1.38535
1.3921
1.50788
1.57183
1.57894
1.50242
1.50762
1.59537
1.57374
1.56336
1.58114
1.56971
1.50069
1.59278
1.62061
1.60145
1.58939
1.60059
1.61032
1.59398
1.61019
1.60342
1.60624
1.56608
1.61312
1.57313
1.60365
1.5857
1.58406
1.59618
1.58152
1.60228
1.5874
1.57909
1.56246
1.49638
1.626
1.5571
1.57318
1.49348
1.61395
1.57512
1.55544
1.54956
1.54936
1.55204
1.55578
1.5685
1.55346
1.56731
1.49374
1.59611
1.49271
1.60417
1.54559
1.60975
1.57292
1.62287
1.61351
1.62034
1.58103
1.61218
1.62007
1.56445
1.57973
1.59366
1.56472
1.60165
1.61269
1.6014
1.61909
1.60407
1.59729
1.59166
1.60387
1.59511
1.43998
1.46857
1.22181
1.42487
1.45083
1.46546
1.21146
1.5445
1.54357
1.53018
1.54883
1.51928
1.55521
1.5368
1.43189
1.42417
1.47466
1.20365
1.46803
1.20562
1.42589
0.968416
0.966872
1.27483
1.34217
1.40405
1.3794
1.29024
1.32831
1.38994
0.925126
0.962815
1.20233
1.03168
0.94103
0.964197
1.18225
1.07814
1.13996
1.13264
1.08628
0.976018
0.989252
1.26178
1.36891
1.3066
1.36513
1.31647
1.37715
1.2509
0.914393
1.01683
0.979041
1.15067
0.969657
1.16553
0.90793
1.20132
1.20297
1.32504
1.406
1.31592
1.40298
1.23004
1.11427
1.1835
1.19855
1.16749
1.21609
1.237
1.33561
1.41113
1.40583
1.35467
1.61635
1.47533
1.81419
2.01468
1.6377
1.45493
1.80068
1.5972
2.00752
1.42575
1.78371
1.43808
1.79082
1.58017
2.22018
2.19422
1.90683
2.2255
2.20438
2.48858
2.49841
2.31873
2.3114
1.90416
2.24041
2.2289
2.23234
2.21609
2.52252
2.50991
2.02619
2.03385
2.16862
2.20577
2.03739
2.03293
2.15659
2.01732
2.224
2.03862
2.14242
2.03469
2.14821
2.00995
2.15599
2.44743
2.29524
2.15557
2.4598
2.30989
2.22484
2.2808
2.32784
2.16
2.30612
2.16484
2.22195
2.15961
2.49119
2.34299
2.47479
2.326
2.1656
1.63144
1.60069
1.61968
1.59393
1.60354
1.61228
1.65066
1.65905
1.63923
1.62241
1.65023
1.63113
1.58536
1.59893
1.60323
1.6112
1.65801
1.62654
1.61745
1.63996
1.62151
1.67011
1.6582
1.64227
1.64127
1.65525
1.65056
1.7499
1.75748
1.66496
1.67036
1.66041
1.77451
1.76577
1.48878
1.5684
1.5576
1.58022
1.49447
1.56483
1.55228
1.5279
1.4877
1.5615
1.36398
1.56175
1.36851
1.48356
1.4838
1.57869
1.56256
1.54352
1.56297
1.54762
1.47944
1.5681
1.59202
1.57656
1.57812
1.5733
1.58943
1.57234
1.58773
1.58498
1.59645
1.54463
1.59664
1.54903
1.58369
1.56367
1.57903
1.58869
1.56634
1.58844
1.56896
1.5599
1.53404
1.49623
1.58996
1.60194
1.53928
1.49993
1.58535
1.55578
1.55361
1.55372
1.53487
1.55097
1.53713
1.55347
1.53009
1.61424
1.51008
1.5805
1.50461
1.58225
1.52712
1.58785
1.61675
1.59271
1.64626
1.59057
1.62973
1.58965
1.60149
1.62118
1.64147
1.57922
1.62596
1.58041
1.60103
1.58639
1.65632
1.65579
1.58781
1.64271
1.58809
1.58646
1.42058
1.48458
1.20505
1.45495
1.4223
1.49636
1.20949
1.52676
1.59807
1.58207
1.54158
1.56898
1.54116
1.52674
1.4207
1.4723
1.52182
1.2256
1.50892
1.21636
1.42234
1.03054
1.00769
1.23586
1.29881
1.35456
1.34376
1.24234
1.29291
1.3449
0.906363
0.992198
1.13881
0.996051
0.905476
1.00877
1.12855
1.13067
1.19645
1.17953
1.14983
1.05717
1.08679
1.23151
1.33765
1.28654
1.32932
1.2889
1.33662
1.22905
0.910488
0.995898
1.0509
1.11451
1.02848
1.12083
0.917303
1.229
1.24386
1.40337
1.42114
1.3766
1.43359
1.28378
1.08977
1.28045
1.1575
1.2532
1.16442
1.30594
1.43446
1.46798
1.4496
1.46643
1.55216
1.41628
1.77945
2.00842
1.56512
1.41042
1.77742
1.54082
2.01431
1.40632
1.77923
1.40695
1.77748
1.53144
2.24924
2.24237
1.90613
2.25865
2.25624
2.53566
2.54903
2.3536
2.34456
1.909
2.27808
2.28415
2.2683
2.27021
2.57554
2.56239
2.00044
2.04417
2.13944
2.28208
2.00452
2.05101
2.1386
1.99781
2.30145
2.06719
2.14247
2.05875
2.13971
1.99632
2.18293
2.50825
2.36053
2.17358
2.52541
2.37822
2.22958
2.36307
2.40738
2.16615
2.38876
2.16164
2.23605
2.19337
2.55873
2.4133
2.54232
2.3959
2.20447
1.61413
1.03638
1.62177
1.72054
1.71048
1.73734
1.03777
1.63684
1.62935
1.73087
1.76986
1.75381
1.679
1.70995
1.69885
1.66942
1.67966
1.68852
1.72963
1.73774
1.71849
1.69845
1.72593
1.7074
1.65845
1.67372
1.67678
1.6742
1.70787
1.69011
1.6922
1.71257
1.69487
1.72057
1.7213
1.70585
1.68037
1.6961
1.69037
1.78353
1.79267
1.70684
1.71018
1.70032
1.81094
1.80184
1.34816
1.01691
1.28407
1.47689
1.02004
1.34816
1.28136
1.01435
1.47943
1.35032
1.277
1.34892
1.27902
1.01201
1.47272
1.56356
1.54007
1.58214
1.47575
1.56569
1.53727
1.47402
1.53151
1.5723
1.35183
1.56816
1.35402
1.47194
1.47031
1.58556
1.57301
1.53356
1.56892
1.53508
1.46858
1.55451
1.59022
1.56444
1.58766
1.55687
1.59272
1.56329
1.57555
1.59028
1.60715
1.53391
1.6031
1.5356
1.57417
1.55279
1.59224
1.6004
1.56287
1.59621
1.56272
1.55173
1.52416
1.51618
1.57991
1.65215
1.52521
1.52277
1.58044
1.55176
1.56945
1.57242
1.53379
1.56688
1.53306
1.55263
1.52392
1.6647
1.53697
1.58411
1.52973
1.58183
1.52441
1.58965
1.66867
1.58864
1.68704
1.58743
1.68148
1.59049
1.60604
1.67986
1.70084
1.58513
1.68646
1.58213
1.6097
1.59245
1.6972
1.70623
1.59654
1.69395
1.59312
1.59624
1.42949
1.53508
1.23649
1.53249
1.42531
1.54831
1.24913
1.53418
1.65122
1.63312
1.55339
1.62078
1.54917
1.53857
1.43458
1.55331
1.5746
1.27755
1.5616
1.26274
1.44058
1.15234
1.11875
1.22974
1.28589
1.32333
1.32462
1.22854
1.28668
1.31836
0.938397
1.07568
1.11045
1.01135
0.926766
1.10237
1.10764
1.21658
1.27729
1.25561
1.24087
1.18694
1.22192
1.23268
1.3222
1.29246
1.31184
1.28896
1.31458
1.23708
0.952149
1.02095
1.15975
1.10704
1.13054
1.10678
0.967562
1.30173
1.32403
1.53801
1.48864
1.50367
1.51151
1.38516
1.10916
1.40047
1.15119
1.37054
1.15036
1.41445
1.57846
1.5613
1.53541
1.61262
1.5171
1.40774
1.78239
2.04245
1.52338
1.41132
1.78679
1.51198
2.05415
1.42366
1.79836
1.41672
1.79214
1.50846
2.28776
2.29783
1.92207
2.29731
2.31121
2.58836
2.60077
2.38911
2.38047
1.92717
2.31563
2.33664
2.30661
2.32416
2.62411
2.61268
1.99649
2.07602
2.14661
2.35741
1.99596
2.08518
2.15192
1.99781
2.3748
2.10372
2.16495
2.09442
2.15804
1.99982
2.22783
2.57451
2.43032
2.21608
2.58955
2.44682
1.64415
1.04227
1.65126
1.78538
1.7891
1.80034
1.04381
1.66475
1.65813
1.80719
1.82834
1.81466
1.75654
1.78638
1.77476
1.74401
1.75223
1.76156
1.80419
1.80926
1.79235
1.76905
1.79484
1.77852
1.72983
1.74521
1.74652
1.73639
1.7577
1.75104
1.76181
1.77808
1.76263
1.76957
1.77884
1.76521
1.71992
1.73902
1.72949
1.81992
1.82871
1.74954
1.74803
1.73888
1.84565
1.83731
1.00857
1.35231
1.27534
1.49091
1.01019
1.35482
1.27404
1.00746
1.49579
1.36117
1.27255
1.3578
1.27311
1.00654
1.46685
1.57794
1.53247
1.60049
1.46738
1.58348
1.532
1.46859
1.5484
1.59542
1.34823
1.58892
1.34838
1.46857
1.46676
1.60669
1.59617
1.53233
1.58962
1.53186
1.46731
1.55136
1.60533
1.56346
1.60903
1.55123
1.61076
1.56472
1.57336
1.61018
1.62971
1.53293
1.62338
1.53233
1.57426
1.55192
1.61548
1.62295
1.56847
1.6167
1.56628
1.55308
1.52724
1.54438
1.58703
1.70159
1.52553
1.55191
1.59062
1.55849
1.59462
1.59811
1.54195
1.59136
1.53921
1.56141
1.52939
1.71333
1.56704
1.59916
1.55948
1.59465
1.53203
1.60524
1.71805
1.60047
1.72674
1.60037
1.72963
1.605
1.45437
1.58747
1.29278
1.61304
1.44715
1.59989
1.30874
1.29108
1.25679
1.25016
1.29724
1.3102
1.31947
1.24302
1.30298
1.30958
1.00273
1.18962
1.10905
1.06016
0.984566
1.21975
1.11206
1.39483
1.5871
1.6539
1.67109
1.0484
1.67716
1.84135
1.85677
1.85369
1.82545
1.85349
1.84089
1.81049
1.81546
1.82544
1.00577
1.36488
1.27233
1.51267
1.00607
1.36886
1.27247
1.46964
1.60301
1.53305
1.62733
1.46818
1.61004
1.53438
1.8151
1.66758
1.67893
1.82039
1.77836
1.79361
1.64438
1.56338
1.66007
1.60133
1.65744
1.59772
1.64688
1.52039
1.61148
1.81104
1.50773
1.80909
1.50427
1.52246
1.95635
2.19356
1.70085
2.09236
1.66238
2.08902
1.65633
2.19885
2.38211
2.3072
2.30184
2.38001
1.79398
2.45542
1.94
2.09798
1.93563
2.09505
1.79847
2.60751
2.60569
2.10983
2.51685
2.55009
2.51518
2.54898
1.77249
1.924
1.76837
1.90624
1.77185
1.92445
1.76905
1.94564
1.78001
1.79701
1.79578
1.963
1.94841
1.77812
1.77122
1.92245
1.77492
1.77379
1.9062
1.9245
1.77015
1.68099
1.81553
1.66891
1.8958
1.67994
1.81553
1.67092
1.85403
1.74128
1.74392
1.74282
1.88129
1.85807
1.73995
1.80638
1.68115
1.68451
1.68277
1.88821
1.81258
1.67352
1.7931
1.7939
1.65167
1.6626
1.6045
1.57239
1.64928
1.66532
1.60785
1.52751
1.8124
1.5109
1.62153
1.52461
1.81245
1.51386
1.81242
1.7543
1.77147
1.81988
1.75678
1.78118
1.67614
1.61811
1.65508
1.65304
1.57832
1.66872
1.61241
1.77774
1.51784
1.53828
1.53152
1.62602
1.80186
1.51617
1.9633
1.95495
2.38919
2.31121
2.39074
2.31703
2.07021
1.69275
2.19944
2.20889
1.71928
2.09474
1.6796
2.32818
2.37707
2.39327
2.32097
1.80706
1.94522
2.10041
2.46404
1.80291
1.94975
2.10323
1.97643
2.12251
1.82663
1.81466
2.46443
1.95789
2.10928
2.51863
2.55116
2.11519
2.52043
2.55225
2.78994
2.79042
2.61518
2.61374
2.52995
2.55372
2.11833
2.52396
2.55327
2.7873
2.79048
2.13738
2.28788
2.37468
2.6529
2.13643
2.28877
2.37563
2.29441
2.37837
2.13977
2.13824
2.65315
2.29042
2.37665
1.25363
0.57268
1.19831
0.795973
0.31487
0.855763
0.311993
1.714
1.71335
1.70356
1.67355
1.70592
1.67595
1.70624
1.67229
1.71655
1.72442
1.66562
1.68229
1.66285
1.68311
0.512916
0.130204
0.30261
0.171896
0.496838
0.129733
0.290716
1.18572
0.612011
0.929162
0.884852
1.16458
0.599749
0.899965
1.44921
1.12762
1.28818
1.32866
1.43573
1.11305
1.26837
1.55223
1.36366
1.45281
1.49189
1.54451
1.35515
1.44136
1.61633
1.4894
1.54392
1.58446
1.60897
1.48384
1.53713
1.57575
1.5367
1.55403
1.60091
1.56917
1.53308
1.54765
2.20658
2.00206
2.17289
2.06567
1.90561
1.89901
2.09061
2.35655
2.45999
2.43975
2.37339
2.3312
2.40734