/*--------------------------------*- C++ -*----------------------------------*\
  =========                 |
  \\      /  F ield         | OpenFOAM: The Open Source CFD Toolbox
   \\    /   O peration     | Website:  https://openfoam.org
    \\  /    A nd           | Version:  10
     \\/     M anipulation  |
\*---------------------------------------------------------------------------*/
FoamFile
{
    format      ascii;
    class       volScalarField;
    location    "2000";
    object      nut;
}
// * * * * * * * * * * * * * * * * * * * * * * * * * * * * * * * * * * * * * //

dimensions      [0 2 -1 0 0 0 0];

internalField   nonuniform List<scalar> 
8792
(
0.264661
0.503358
0.553419
0.478976
0.347719
0.272662
0.197061
0.85909
1.38414
1.5281
1.67359
1.61566
1.11692
0.306214
0.185439
0.872796
1.48675
2.0713
2.50767
2.65516
2.15278
1.17864
0.140374
0.553808
1.32051
1.99776
2.65679
3.08836
3.02984
2.16671
1.04607
0.374037
0.128015
0.308405
1.14199
1.78496
2.51267
3.14359
3.43571
2.98831
2.31373
1.89324
3.45105
3.35654
0.259426
0.57761
0.648375
0.607541
0.380289
0.3636
0.194811
0.883803
1.42315
1.71201
1.82664
1.76222
1.23435
0.365972
0.184796
0.884336
1.5166
2.10331
2.55164
2.7322
2.28501
1.2784
0.140221
0.551548
1.332
2.00635
2.66882
3.11481
3.07139
2.35359
1.13985
0.462913
0.127977
0.306954
1.14044
1.7972
2.52768
3.16444
3.46907
3.09324
2.4105
2.06854
3.51818
3.43534
0.258724
0.578363
0.651868
0.627227
0.407057
0.388777
0.194689
0.883069
1.42463
1.72478
1.82298
1.75724
1.23522
0.377419
0.184364
0.884238
1.51507
2.10279
2.55248
2.73335
2.29674
1.2596
0.140179
0.551012
1.33103
2.0064
2.6696
3.11465
3.07793
2.33274
1.12914
0.496781
0.127968
0.306565
1.14062
1.79653
2.52812
3.16239
3.47253
3.0992
2.40883
2.06622
3.51682
3.43606
0.258934
0.583954
0.659982
0.645298
0.424423
0.409953
0.194429
0.884304
1.43044
1.7335
1.82082
1.75457
1.23704
0.391494
0.183901
0.88413
1.51426
2.10262
2.55235
2.73493
2.30753
1.25034
0.140121
0.550366
1.33019
2.00656
2.66985
3.11524
3.0851
2.33375
1.12494
0.504099
0.127955
0.306122
1.14069
1.79591
2.52787
3.16165
3.47199
3.09892
2.41489
2.06539
3.51427
3.43709
0.259275
0.593948
0.672385
0.663697
0.431751
0.419304
0.194107
0.884714
1.43351
1.73301
1.81931
1.7538
1.24239
0.411181
0.183432
0.88402
1.51339
2.10249
2.55251
2.73659
2.31734
1.25045
0.140048
0.54959
1.32969
2.00682
2.67003
3.11577
3.08713
2.33163
1.12105
0.517499
0.12794
0.30559
1.14058
1.79606
2.52814
3.16104
3.47108
3.09932
2.41631
2.06665
3.51251
3.4377
0.259522
0.600585
0.686582
0.681521
0.442043
0.430224
0.193755
0.884577
1.43506
1.73327
1.81859
1.75475
1.25087
0.433735
0.182975
0.883929
1.51244
2.10203
0.139967
0.548739
1.32865
2.00631
0.127921
0.304991
1.14033
1.79572
0.259668
0.605769
2.34757
3.11403
0.510436
1.8389
1.40902
0.662424
2.52394
2.71741
2.3505
1.4488
3.1201
2.3056
1.18592
3.09305
2.40035
3.4797
0.267947
0.704405
0.782276
0.75101
0.500161
0.479904
0.190847
0.883064
1.43103
1.72482
1.82984
1.78619
1.18495
0.491058
0.188168
0.906195
1.55931
2.14198
2.58285
2.72192
2.20414
1.239
0.141043
0.570878
1.33216
2.011
2.66163
3.09877
3.04752
2.19207
1.18974
0.592732
0.128183
0.317331
1.15865
1.80195
2.52981
3.15911
3.45466
3.08329
2.40165
2.09459
3.53229
3.43951
1.17151
0.950205
0.3535
0.184939
1.18895
0.909312
0.647607
0.306438
0.80009
0.300715
0.243802
0.21465
0.838468
0.351869
0.627383
0.242682
1.72476
1.21398
1.26085
0.358631
1.81448
1.168
0.676134
0.195863
0.740068
1.3784
1.20672
0.45239
1.40105
1.33573
0.253483
0.273709
0.266495
0.315701
0.278043
0.280678
0.32435
0.33438
0.284471
0.304192
0.339023
0.376923
0.267021
0.30538
0.403833
0.289198
0.31253
1.30354
1.26283
0.371422
0.384909
1.30275
1.27677
0.612383
0.259461
0.565728
0.309417
0.300082
0.652651
0.526661
0.0932466
0.295698
0.135333
0.178592
0.641331
1.63728
1.25899
1.21064
0.777596
1.73662
1.33462
0.16404
0.507375
0.291341
0.0933078
0.472303
0.318918
0.352164
0.323479
0.409197
1.74614
1.55461
1.13381
0.47195
1.82739
1.52311
0.688349
0.195202
0.711605
0.405972
0.351406
0.809706
0.620123
0.255879
1.25973
0.937619
0.283711
1.14701
0.990031
0.938543
0.455153
0.775926
0.358883
0.272111
0.250073
0.75904
0.397376
0.860669
0.40987
1.75473
1.1994
1.1449
0.247023
1.79679
1.14403
0.867041
0.745737
0.181283
1.46524
1.41889
0.387504
1.35015
1.20558
0.506064
0.163303
0.381615
0.112366
0.268737
0.293351
0.498167
0.0670338
0.12996
0.177124
0.166459
0.50767
0.223227
0.0895598
0.377686
0.278248
0.0956841
0.157099
0.0624136
0.369745
0.240962
0.178462
0.83911
0.491688
0.601364
0.307092
0.453587
0.537584
0.83988
0.499514
0.476327
0.689657
0.467713
0.453817
0.306845
0.2893
0.564704
0.29533
0.58493
0.48145
0.281528
0.627783
0.260033
0.53992
0.277951
0.656344
0.55575
0.86262
1.07652
0.575893
0.62708
0.888421
1.12104
0.529199
1.19667
1.29371
0.644814
0.619708
1.25035
1.33691
0.375572
1.29804
1.34483
0.597769
0.402492
1.32249
1.29893
0.298886
0.273108
0.293417
0.266627
0.263424
0.298482
0.294031
0.11327
0.0507754
1.65295
2.6946
2.08767
2.2299
1.77427
2.76506
2.14751
1.88286
2.64779
2.42357
2.06086
1.97378
2.69158
2.52789
0.279105
0.464672
0.259572
0.266827
0.479831
0.492772
0.270161
0.271588
0.496587
0.476664
0.274792
0.297731
0.465239
0.297923
0.318935
0.300161
0.49048
1.33119
1.33247
0.355221
0.31367
1.29464
1.25002
0.843397
1.68555
1.2935
1.17352
0.812706
1.7374
1.16811
0.60845
1.84208
1.55009
1.07913
0.438302
1.77098
1.5484
0.173239
0.183438
0.122534
0.162415
0.313933
0.384878
0.598877
0.652194
0.391964
0.556414
0.317468
0.0425866
0.187387
0.157151
0.172742
0.0799811
0.101308
0.106746
0.337669
0.712706
0.698814
0.822249
0.66279
0.608054
0.435008
0.203785
0.166858
0.362171
0.332368
0.265314
0.236273
0.264017
0.275158
0.370063
1.14248
1.13044
1.22911
1.2197
0.797572
1.26281
1.16453
0.308073
0.17414
0.220138
0.191258
0.226681
1.00731
1.33559
1.26622
1.38688
0.937657
0.277805
0.259364
0.307725
0.275438
0.286435
0.289543
0.279176
0.291153
0.292799
0.279182
0.296199
0.293449
0.286651
0.30065
0.302482
0.295425
0.341347
0.315138
0.247932
0.369155
0.343654
0.230069
0.239925
0.164657
0.636585
0.347769
0.691311
0.708805
0.308893
0.333562
0.612932
0.29215
0.26417
0.251069
0.283798
0.255605
0.292491
0.285493
0.0680533
0.219374
0.200158
0.266618
0.105075
0.165259
0.15499
0.0606742
0.131908
0.133374
0.179501
0.0487355
0.128305
0.135498
0.154436
0.140213
0.144675
0.0932016
0.12672
0.177828
0.253464
0.210527
0.27801
0.329319
0.171306
0.311013
0.304366
0.264458
0.361554
0.21436
0.256702
0.229266
0.557265
0.823235
0.427385
0.544736
0.864014
0.95427
0.915455
0.347948
0.311441
0.188243
0.327169
0.302622
0.332303
0.336741
0.274336
0.60468
0.57382
0.602913
0.359146
0.324226
0.667791
0.160172
0.376955
0.483087
0.493733
0.131915
0.260662
0.341798
0.303325
0.184746
0.109156
0.151915
0.122796
0.0230004
0.173295
0.529968
0.282489
0.236388
0.316633
0.0939509
0.477003
0.105802
0.605977
0.328877
0.171362
0.342455
0.0989142
0.562475
0.206867
0.370231
0.224329
0.0565498
0.296953
0.612538
0.578605
0.932282
0.918998
0.305064
0.592524
0.579746
0.343906
0.333762
0.459442
0.475872
0.733813
0.451626
0.448557
0.297461
0.283765
0.32085
0.765763
0.664529
0.693724
0.427599
0.381941
0.792479
0.570131
0.56026
0.274206
0.249376
0.168999
0.26241
0.270024
0.233769
0.121802
0.080978
0.119342
0.147559
0.12548
0.218198
0.240147
0.104834
0.179404
0.138068
0.161109
0.23988
0.12388
0.0555153
0.0616095
0.0698582
0.0902277
0.233809
0.181214
0.152075
0.444821
0.516081
0.495856
0.467738
0.432209
0.525557
0.502108
0.181197
0.209018
0.287795
0.316043
0.230405
0.322335
0.219539
0.294507
0.292456
0.30074
0.293181
0.532006
0.556825
0.574046
0.778815
0.744151
0.760151
0.768364
0.573272
0.615282
0.623957
0.924996
0.879657
0.909351
0.894684
0.454373
0.545613
0.519162
0.828748
0.752779
0.849909
0.70749
0.705187
0.310199
0.700946
0.339263
0.319862
0.73889
0.656296
0.662624
0.272247
0.64557
0.265736
0.508691
0.285452
0.688284
0.76597
0.889933
1.11458
0.533809
0.567055
0.936474
1.13148
0.772053
1.24887
1.37771
0.581556
0.517353
1.2499
1.29504
0.526931
1.37963
1.33472
0.486828
0.385252
1.28685
1.34145
0.253931
0.259056
0.273653
0.278606
0.278132
0.253104
0.261211
0.255205
0.261939
0.278241
0.283296
0.283692
0.254801
0.262015
0.255666
0.262929
0.281619
0.287253
0.288073
0.255547
0.263121
0.258737
0.266016
0.284286
0.291439
0.291519
0.258339
0.266091
0.182136
0.30202
0.313882
0.308834
0.184067
0.261946
0.293278
0.28359
0.2851
0.183104
0.180943
0.284954
0.188417
0.187161
0.425951
0.526722
0.476111
0.601834
0.631585
0.625502
0.593469
0.538119
0.599094
0.585635
0.842555
0.849269
0.872773
0.817959
0.588846
0.572528
0.621125
0.922595
0.831669
0.880093
0.883338
0.421485
0.722005
0.369091
0.430617
0.759108
0.786214
0.738401
0.292685
0.273996
0.342403
0.271568
0.369329
0.361679
0.269922
0.374608
0.376231
0.269312
0.377485
0.376267
0.275586
0.378585
0.369017
0.285038
0.307557
0.338113
0.276404
0.309706
0.286519
0.221942
0.217858
0.156131
0.257461
0.276219
0.277851
0.244895
0.278572
0.243878
0.263443
0.254627
0.279042
0.285051
0.261741
0.284936
0.254661
0.261743
0.253966
0.27902
0.28531
0.26114
0.285328
0.253971
0.26112
0.258461
0.285192
0.294007
0.26673
0.292286
0.258789
0.26637
0.262172
0.295368
0.302639
0.274139
0.304941
0.265218
0.270441
0.253835
0.265978
0.272703
0.234299
0.239063
0.253671
0.2598
0.14188
0.188909
0.26796
0.322353
0.270067
0.337579
0.265075
0.319453
0.314945
0.541005
0.277038
0.666741
0.258762
0.541498
0.27654
0.666268
0.32275
0.269334
0.325859
0.26899
0.343035
0.266839
0.354175
0.27049
0.328957
0.328937
0.542108
0.276052
0.664817
0.258849
0.546155
0.275581
0.663328
0.266444
0.355081
0.265927
0.360476
0.326757
0.268095
0.325127
0.267391
0.323427
0.324067
0.331817
0.34284
0.347783
0.359903
0.347766
0.382796
0.36547
0.393654
0.406423
0.409141
0.630384
0.903495
1.13852
0.577897
0.632574
0.905531
1.14053
0.628072
1.26996
1.33984
0.650758
0.640563
1.27266
1.33902
0.411149
1.32627
1.30319
0.622701
0.431472
1.32616
1.30237
0.392595
1.30489
1.27925
0.400433
0.406651
1.30228
1.27825
0.203572
1.19471
0.92872
0.38281
0.246554
1.19536
0.933534
0.825241
0.320752
0.831005
0.329956
0.226807
0.248159
0.651446
0.375181
0.65771
0.357512
1.82855
1.23036
1.2689
0.368316
1.82197
1.22588
0.747722
0.758088
0.484038
1.85634
1.5305
1.1318
0.516955
1.85416
1.5296
1.40945
1.34224
0.488323
1.41077
1.33247
0.353315
0.365653
0.364721
0.381498
0.371413
0.397613
0.387404
0.410756
0.410706
0.417582
0.633651
0.90551
1.13963
0.582033
0.639233
0.905254
1.13856
0.644506
1.2721
1.33825
0.657411
0.656875
1.27119
1.33767
0.438246
1.3262
1.30161
0.640674
0.451123
1.32664
1.30118
0.411099
1.30013
1.27772
0.42314
0.424634
1.29858
1.27776
0.249184
1.19636
0.937859
0.406339
0.251753
1.19803
0.943315
0.830931
0.331395
0.834202
0.34026
0.24727
0.243338
0.664454
0.387175
0.673653
0.365381
1.81538
1.22142
1.25345
0.358497
1.80992
1.21822
0.762286
0.776079
0.523433
1.85202
1.529
1.1243
0.523941
1.84988
1.52889
1.41248
1.33034
0.501428
1.41497
1.32732
0.365533
0.382493
0.370681
0.388158
0.388385
0.411513
0.39392
0.415148
0.420353
0.421779
0.548153
0.275116
0.661678
0.259195
0.555478
0.274669
0.660069
0.641835
0.904396
1.13668
0.591158
0.65096
0.903287
1.13455
0.66134
1.26936
1.33743
0.669008
0.674821
1.26718
1.33753
0.451247
1.32758
1.30119
0.659048
0.453251
1.32899
1.30165
0.429038
1.29769
1.27842
0.429295
0.433581
1.2974
1.27962
0.252589
1.20031
0.94978
0.41677
0.25693
1.20313
0.957027
0.836959
0.344467
0.846999
0.359596
0.242244
0.24176
0.684891
0.40578
0.69756
0.357313
1.80541
1.2155
1.24934
0.355455
1.8019
1.20789
0.780933
0.794681
0.525901
1.84802
1.5295
1.12088
0.533731
1.84649
1.53067
1.41839
1.3283
0.513643
1.42252
1.33307
0.265943
0.362987
0.266318
0.371785
0.373068
0.390648
0.381634
0.399536
0.396371
0.416862
0.405076
0.423409
0.422561
0.42645
0.558253
0.274228
0.658389
0.25947
0.562481
0.273799
0.656777
0.654366
0.901791
1.13208
0.599765
0.665001
0.900195
1.12964
0.67944
1.2646
1.33808
0.682937
0.692821
1.262
1.33903
0.454877
1.33093
1.30263
0.6771
0.460128
1.33333
1.30407
0.435442
1.29777
1.2814
0.439007
0.441541
1.2987
1.28365
0.258739
1.2065
0.964988
0.427447
0.26516
1.21032
0.973477
0.851455
0.365282
0.865504
0.38362
0.242438
0.247247
0.711311
0.427802
0.725801
0.355702
1.79928
1.20153
1.25301
0.357434
1.79755
1.19536
0.799098
0.810914
0.537152
1.84549
1.53259
1.1193
0.547238
1.84491
1.535
1.41801
1.33594
0.266543
0.375021
0.267341
0.385009
0.384795
0.402755
0.394752
0.413059
0.408254
0.425807
0.418295
0.433684
0.428079
0.43385
0.563466
0.273374
0.655087
0.259633
0.567344
0.27296
0.653487
0.66866
0.898363
1.12688
0.604307
0.679481
0.896544
1.12427
0.69726
1.25907
1.34043
0.697415
0.709825
1.25633
1.34223
0.462575
1.33621
1.306
0.694008
0.469423
1.33948
1.30832
0.443817
1.30019
1.28637
0.267443
1.21458
0.982424
0.87095
0.390012
0.249552
0.740854
0.267654
0.388363
0.398107
0.416534
0.568866
0.272552
0.651783
0.683049
0.894598
1.12143
0.340464
1.1505
1.10043
0.61454
0.381558
0.660558
1.03272
1.43893
0.443407
1.93515
1.23951
0.903145
1.18299
1.85583
0.51877
1.3592
0.527919
0.512113
1.34738
1.35961
0.340839
1.31333
1.16037
0.503161
0.319814
1.31487
1.13411
1.10288
0.61593
1.05709
0.562413
0.382592
0.351039
1.05071
0.60878
1.01803
0.444532
1.94305
1.25195
1.47085
0.439554
1.92618
1.23158
0.904327
0.896717
0.633373
1.86058
1.58782
1.18884
0.628352
1.85426
1.59079
0.730057
0.679479
0.702447
0.822923
0.847075
0.837433
0.834204
0.791025
0.746818
0.74749
1.01151
1.02338
1.03938
0.998292
0.706402
0.672858
0.634178
0.920165
1.03057
0.983012
0.962257
0.773636
0.488054
0.835886
0.42788
0.824206
0.419092
0.783249
0.693208
0.454452
0.795609
0.431078
0.757607
0.396354
0.746726
0.148064
0.361837
0.288782
0.193283
0.21774
0.283069
0.739842
0.322413
0.3821
0.128894
0.55438
0.456371
0.39279
0.816724
0.546944
0.947813
0.524598
0.877707
0.487778
0.88499
0.658749
0.335965
0.34796
0.691485
0.328804
0.678903
0.672897
0.539391
0.15618
0.318396
0.366764
0.300785
0.336351
0.561695
0.189812
0.277146
0.245506
0.224779
0.10481
0.139199
0.369824
0.745898
0.507472
0.701442
0.460498
0.643198
0.413075
0.208642
0.26484
0.15038
0.475466
0.120293
0.433425
0.236233
0.190055
0.21492
0.325632
0.148027
0.529812
0.120904
0.506933
0.250851
0.209091
0.320036
0.286517
0.242597
0.884494
0.3114
0.529116
0.598347
0.497257
0.574785
0.913294
0.395735
0.363711
0.720419
0.540551
0.499381
0.502897
0.482378
0.348289
0.326267
0.761367
0.434127
0.412004
0.845392
0.388676
0.833997
0.775727
0.594205
0.376808
0.520386
0.358915
0.500816
0.612666
0.304513
0.313038
0.304062
0.311538
0.328269
0.314596
0.319669
0.330748
0.316367
0.323933
0.342984
0.32733
0.364904
0.356332
0.341219
0.395805
0.383777
0.37414
0.307474
0.282912
0.738338
0.356691
0.354533
0.758304
0.338697
0.750686
0.745246
0.370424
0.724466
0.713907
0.725395
0.370199
0.354867
0.734587
0.453484
0.582878
0.897714
0.568274
0.886644
0.981919
0.995234
0.57886
0.38531
0.478187
0.143385
0.668774
0.31507
0.333326
0.0887839
0.208622
0.332079
0.641373
0.803839
0.708392
0.523299
0.412664
0.6031
0.227046
0.249002
0.639398
0.299632
0.380041
0.119025
0.46295
0.133195
0.156353
0.478995
0.340218
0.277327
0.896282
0.7359
0.666701
0.318101
1.02667
0.570263
0.570678
0.550504
0.569462
0.801991
0.511031
0.529204
0.387137
0.356703
0.654602
0.406566
0.635327
0.727929
0.368222
0.57595
0.535892
0.493284
0.490044
0.605443
0.625543
0.609207
0.605664
0.569865
0.595968
0.588935
0.765608
0.774766
0.771413
0.792841
0.617855
0.611757
0.603311
0.861101
0.898879
0.884468
0.867385
0.634955
0.655971
0.64532
0.949226
0.940634
0.932239
0.958951
0.603155
0.65719
0.645396
0.952449
0.928272
0.91398
0.964245
0.579179
0.570013
0.551453
0.859335
0.897489
0.883446
0.872998
0.38809
0.467215
0.784898
0.452863
0.775501
0.810166
0.820996
0.361973
0.278184
0.356609
0.423801
0.436626
0.410349
0.486995
0.446834
0.451444
0.48947
0.454737
0.45281
0.495989
0.456422
0.449584
0.486557
0.413694
0.429375
0.438711
0.405637
0.382857
0.325708
0.288689
0.814169
0.441972
0.770341
0.775396
0.48888
0.822158
0.431398
0.324948
0.707236
0.676272
0.72466
0.351213
0.333051
0.755789
0.642321
0.370941
0.323293
0.699403
0.685634
0.706338
0.34762
0.67884
0.982721
0.552464
0.609668
0.915733
0.971644
1.03783
0.574121
0.744772
0.464535
0.556911
0.808193
0.924996
0.911723
0.569368
0.642004
0.555979
0.651187
0.6737
0.656133
0.666593
0.748147
0.733856
0.718174
0.929905
0.957308
0.948709
0.93841
0.78383
0.695478
0.723302
1.00494
1.0483
1.05327
0.984362
0.573331
0.862257
0.461123
0.506987
0.804146
0.824872
0.886888
0.434156
0.648646
0.386113
0.431294
0.709164
0.753613
0.744594
0.318891
0.327534
0.323861
0.332443
0.333741
0.328707
0.494428
0.62589
0.604125
0.541163
0.494985
0.602219
0.630355
0.541243
0.495921
0.495392
0.600155
0.633786
0.632571
0.598259
0.339014
0.348768
0.341851
0.353881
0.342
0.341665
0.49669
0.634319
0.596574
0.543104
0.497764
0.595145
0.634645
0.544455
0.500674
0.49909
0.593915
0.633849
0.634143
0.592927
0.323222
0.266164
0.323305
0.342885
0.356457
0.34415
0.266007
0.324285
0.323703
0.358297
0.347706
0.345803
0.598228
0.773916
0.790845
0.577797
0.77127
0.795519
0.598742
0.65993
0.941637
0.961463
0.959424
0.649401
0.661125
0.938667
0.579675
0.903209
0.877071
0.87642
0.613344
0.585562
0.902737
0.3643
0.755193
0.741937
0.740269
0.387296
0.372048
0.754194
0.358505
0.694279
0.677289
0.674843
0.370628
0.364781
0.693562
0.294708
0.244172
0.252703
0.303239
0.806368
1.76021
1.38379
1.23577
0.81209
1.75937
1.37303
0.167076
0.543338
0.272827
0.277759
0.37145
0.177995
0.548357
0.407194
0.40991
0.425609
0.844902
0.778514
0.777941
0.471617
0.43561
0.842987
0.76351
0.579214
0.761447
0.795507
0.600484
0.796348
0.601798
0.951914
0.664368
0.930525
0.653338
0.953754
0.666087
0.928297
0.873399
0.598932
0.903651
0.631649
0.873526
0.603183
0.904054
0.733735
0.392807
0.746827
0.413816
0.733216
0.399764
0.747182
0.668031
0.380291
0.692093
0.394726
0.668825
0.385417
0.692795
0.270839
0.319636
0.266026
0.325442
0.816015
1.75691
1.36168
1.23564
0.821311
1.75556
1.35271
0.292498
0.210393
0.551737
0.380068
0.28767
0.219678
0.552898
0.408419
0.408912
0.778462
0.463671
0.838265
0.498063
0.776719
0.472259
0.839462
0.757304
0.586137
0.788945
0.607987
0.79029
0.610619
0.756472
0.949559
0.673576
0.92491
0.662777
0.949921
0.676631
0.924321
0.87835
0.616024
0.91013
0.649838
0.876619
0.620256
0.912138
0.738466
0.413995
0.748449
0.425552
0.735452
0.416022
0.75128
0.672859
0.400704
0.698286
0.412064
0.671087
0.403243
0.70095
0.287214
0.343612
0.28626
0.343346
0.82785
1.75535
1.3465
1.23928
0.835361
1.75589
1.34206
0.294853
0.229822
0.56193
0.395905
0.294024
0.235546
0.565433
0.412357
0.413901
0.792199
0.488521
0.846924
0.506908
0.78793
0.493004
0.850998
0.782988
0.619658
0.755681
0.596865
0.784032
0.622898
0.755895
0.952512
0.68701
0.925306
0.675824
0.951652
0.690658
0.925997
0.888707
0.632932
0.92196
0.668186
0.885863
0.637043
0.924869
0.749672
0.424277
0.757816
0.433855
0.745465
0.426955
0.761864
0.684787
0.409595
0.710476
0.421962
0.68176
0.412363
0.713983
0.294266
0.344636
0.291871
0.346049
0.843774
1.75713
1.33966
1.24626
0.852891
1.75895
1.3387
0.296773
0.24816
0.580597
0.416503
0.293712
0.254816
0.585827
0.41889
0.420613
0.810552
0.50629
0.86358
0.521045
0.805772
0.510442
0.868523
0.778823
0.633007
0.757878
0.601715
0.779302
0.6364
0.758908
0.959399
0.701997
0.930221
0.690195
0.957691
0.70575
0.931805
0.901876
0.649059
0.936602
0.685738
0.898522
0.65287
0.939895
0.763303
0.436554
0.770582
0.444544
0.758745
0.439402
0.775032
0.699428
0.420126
0.72479
0.433057
0.696058
0.423246
0.728424
0.307399
0.353104
0.303543
0.356375
0.862685
1.76127
1.3393
0.307687
0.269284
0.605339
0.439482
0.302911
0.276521
0.611757
0.776902
0.645414
0.76288
0.607525
0.776792
0.648013
0.764457
1.39079
1.05285
1.91384
1.43272
0.803385
0.502825
0.822798
0.510831
0.803682
0.502473
0.823363
0.468693
0.521943
0.470422
0.520134
1.06789
1.91967
1.42642
1.37054
1.04225
1.88625
1.45141
0.458056
0.439432
0.920558
0.661594
0.456762
0.441339
0.921013
0.483001
0.483508
0.33617
0.337397
0.341975
0.33907
0.348969
0.345142
0.342519
0.352722
0.347283
0.354394
0.356125
0.350593
0.351993
0.354105
0.358479
0.36457
0.386578
0.370273
0.359751
0.370222
0.364318
0.390036
0.38046
0.375335
0.387267
0.407266
0.38872
0.318156
0.318255
0.408058
0.392097
0.390336
0.312793
0.315834
0.614582
0.900725
0.867668
0.864722
0.631393
0.615244
0.899385
0.577792
0.765805
0.768518
0.796945
0.599564
0.59908
0.797014
0.86188
0.631934
0.61592
0.895763
0.615534
0.897788
0.858876
0.661627
0.933974
0.967441
0.965199
0.632732
0.662998
0.932949
0.95779
0.650058
0.662995
0.932837
0.662069
0.935946
0.955305
0.96364
0.63684
0.664904
0.932272
0.663957
0.933439
0.96099
0.475378
0.783159
0.822886
0.820417
0.418054
0.479877
0.782167
0.875199
0.618226
0.594605
0.902642
0.590268
0.903298
0.873888
0.817006
0.424766
0.487598
0.775976
0.483739
0.778223
0.81396
0.725262
0.378871
0.732906
0.732078
0.397764
0.38537
0.723758
0.736636
0.393864
0.38591
0.749137
0.379007
0.750495
0.735404
0.729582
0.402272
0.396694
0.72056
0.391075
0.721907
0.729096
0.327874
0.382172
0.573451
0.57622
0.229588
0.331879
0.387462
0.672532
0.376838
0.375191
0.691978
0.370166
0.692668
0.669952
0.578377
0.241335
0.338821
0.390943
0.33527
0.389184
0.579054
0.159334
0.168066
0.533222
0.728302
0.43705
0.447644
0.831118
0.545452
0.733299
0.169221
0.498827
0.252147
0.259028
0.327633
0.177957
0.507005
0.257625
0.314247
0.309018
0.261704
0.173357
0.177827
0.453527
0.832122
0.558097
0.728311
0.552953
0.731884
0.457484
0.262609
0.329142
0.190496
0.510342
0.184441
0.509944
0.265806
0.241431
0.246706
0.334171
0.258318
0.272336
0.342159
0.281081
0.373642
0.199169
0.550413
0.188577
0.5503
0.283354
0.279112
0.357225
0.35059
0.291485
0.542594
0.604918
0.920425
0.914783
0.371042
0.546001
0.601418
0.90476
0.371947
0.54745
0.595493
0.545731
0.597671
0.897432
0.539454
0.511473
0.751224
0.535987
0.523723
0.360204
0.361417
0.408502
0.409142
0.754484
0.521971
0.528408
0.528295
0.534903
0.359591
0.360771
0.589521
0.897399
0.996776
0.992137
0.495585
0.592791
0.893482
0.98666
0.506334
0.599276
0.886004
0.595787
0.888797
0.982687
0.385279
0.532394
0.623147
0.627562
0.38306
0.542006
0.776578
0.479946
0.454677
0.838803
0.445383
0.840137
0.776087
0.631384
0.375964
0.562006
0.37934
0.551939
0.635482
0.359085
0.358431
0.364367
0.361888
0.3716
0.367841
0.364438
0.372855
0.370451
0.377677
0.37674
0.373917
0.376353
0.377534
0.382652
0.385824
0.401825
0.391365
0.383762
0.392989
0.389057
0.40625
0.400923
0.39703
0.394184
0.412682
0.396534
0.309692
0.30707
0.415008
0.40177
0.399092
0.30339
0.304929
0.854366
0.616735
0.894177
0.635119
0.856536
0.617945
0.892633
0.580444
0.758352
0.759788
0.793692
0.605577
0.603521
0.792325
0.852876
0.637012
0.621561
0.890688
0.619581
0.891632
0.851491
0.957675
0.666316
0.932911
0.64846
0.959534
0.668052
0.932498
0.951082
0.655217
0.670711
0.925487
0.668253
0.926869
0.949981
0.957032
0.652674
0.672717
0.93424
0.67025
0.933891
0.955995
0.810354
0.49156
0.77355
0.445145
0.811846
0.495575
0.773107
0.874113
0.636205
0.611723
0.907318
0.607484
0.906028
0.875001
0.809603
0.451995
0.503622
0.773312
0.499622
0.772253
0.809344
0.728718
0.40232
0.719796
0.415619
0.72774
0.408026
0.719805
0.733042
0.420516
0.411773
0.748073
0.406601
0.746343
0.734936
0.7286
0.420142
0.418132
0.721385
0.41365
0.72026
0.730729
0.582127
0.342986
0.393617
0.250202
0.580571
0.34764
0.397138
0.668566
0.400601
0.39567
0.695972
0.390588
0.694163
0.669215
0.584656
0.250852
0.357899
0.40637
0.35269
0.401452
0.587175
0.180561
0.181362
0.465221
0.563124
0.725653
0.831122
0.46129
0.568159
0.723608
0.273607
0.196637
0.511335
0.333628
0.269442
0.199389
0.512608
0.276121
0.338333
0.331695
0.281779
0.179846
0.179685
0.469411
0.832599
0.579012
0.722347
0.573556
0.722738
0.473764
0.27833
0.336634
0.198561
0.517383
0.198807
0.514899
0.28344
0.246055
0.244572
0.290319
0.366564
0.289909
0.374644
0.298734
0.383499
0.22715
0.558
0.22192
0.5556
0.298339
0.287836
0.37011
0.370201
0.288475
0.886375
0.549066
0.59476
0.362521
0.890303
0.552898
0.595371
0.882379
0.36037
0.561984
0.599048
0.556523
0.596786
0.881227
0.516492
0.523634
0.766678
0.512772
0.520229
0.358896
0.358493
0.410971
0.409782
0.771401
0.508029
0.517027
0.509719
0.518216
0.359139
0.358655
0.977678
0.603144
0.884204
0.522481
0.97942
0.607276
0.884344
0.976262
0.52296
0.615775
0.887049
0.611483
0.884952
0.976085
0.644668
0.373292
0.563637
0.639959
0.371781
0.561906
0.78091
0.499509
0.483976
0.843979
0.479562
0.841033
0.784236
0.649502
0.371342
0.561852
0.371174
0.561295
0.654367
0.366859
0.373782
0.375261
0.377759
0.38403
0.3793
0.368575
0.379343
0.377079
0.38588
0.383426
0.381158
0.394074
0.389877
0.395706
0.401804
0.412428
0.403224
0.391698
0.399961
0.397616
0.413572
0.406975
0.404903
0.404537
0.421054
0.407328
0.302324
0.301701
0.421211
0.410329
0.409285
0.301443
0.301422
0.850135
0.623927
0.890342
0.644665
0.850791
0.626531
0.890033
0.588553
0.787071
0.616484
0.755668
0.613486
0.755964
0.785804
0.85008
0.647746
0.632414
0.890522
0.629398
0.890259
0.850049
0.955954
0.675606
0.936387
0.665753
0.956197
0.678664
0.937434
0.950147
0.665828
0.683379
0.92452
0.67996
0.924436
0.950424
0.95685
0.670343
0.685443
0.941752
0.682018
0.940159
0.957273
0.810417
0.507579
0.773772
0.45136
0.809685
0.511441
0.775993
0.880655
0.654505
0.628716
0.91806
0.624523
0.915541
0.883015
0.811567
0.45237
0.518896
0.780311
0.515225
0.777331
0.813026
0.734682
0.419882
0.722814
0.430434
0.731625
0.421497
0.724834
0.739822
0.42755
0.421199
0.756029
0.418758
0.752487
0.74354
0.736272
0.431954
0.425747
0.729625
0.423744
0.72699
0.739923
0.593862
0.363228
0.411814
0.253873
0.590562
0.36795
0.417643
0.675703
0.414324
0.407495
0.707107
0.405015
0.703915
0.678242
0.597902
0.255245
0.372737
0.430086
0.370029
0.423755
0.601767
0.180914
0.179968
0.483198
0.584887
0.722971
0.839705
0.478396
0.590825
0.723953
0.294803
0.19862
0.520794
0.349134
0.288985
0.19919
0.524303
0.288342
0.34378
0.343277
0.289986
0.182327
0.184322
0.488242
0.843403
0.603389
0.727808
0.597126
0.72574
0.493397
0.300948
0.35419
0.201632
0.532842
0.200139
0.528557
0.307276
0.241695
0.241434
0.288138
0.365807
0.287394
0.366634
0.292486
0.40084
0.244817
0.57479
0.238576
0.57036
0.294436
0.288571
0.365306
0.363489
0.290004
0.880666
0.566944
0.601661
0.356274
0.879694
0.573405
0.6048
0.880921
0.355864
0.586094
0.611495
0.579114
0.607978
0.883415
0.506556
0.516777
0.78558
0.506135
0.516988
0.359965
0.361017
0.417195
0.415511
0.790282
0.506116
0.518947
0.505708
0.517839
0.363513
0.362195
0.977057
0.619997
0.889196
0.52806
0.976041
0.624188
0.892557
0.977942
0.530947
0.632198
0.899654
0.628236
0.895615
0.979732
0.66402
0.372029
0.563074
0.659236
0.373123
0.565019
0.796528
0.510325
0.501901
0.859429
0.497555
0.854753
0.801236
0.668723
0.376088
0.570056
0.374507
0.567315
0.67329
0.325068
0.26601
0.325954
0.349857
0.365719
0.352133
0.26615
0.328041
0.326977
0.368684
0.357052
0.354571
0.381827
0.375733
0.384651
0.385921
0.39345
0.388706
0.378585
0.390806
0.387609
0.396373
0.394768
0.391626
0.402479
0.399106
0.405322
0.409228
0.41891
0.411775
0.401992
0.411422
0.408256
0.421038
0.417275
0.414425
0.411549
0.423662
0.412926
0.301708
0.302165
0.424934
0.416045
0.414416
0.303535
0.30278
0.496353
0.590882
0.629817
0.560882
0.590785
0.495781
0.629144
0.591076
0.561595
0.495422
0.627584
0.495647
0.62821
0.591448
0.85115
0.63563
0.891334
0.657834
0.850613
0.638926
0.892142
0.781455
0.59896
0.62959
0.757008
0.626238
0.756358
0.780645
0.852194
0.661413
0.645785
0.894669
0.642344
0.893416
0.853188
0.959862
0.689093
0.945013
0.683905
0.958842
0.692748
0.947066
0.95422
0.679378
0.698168
0.928462
0.694432
0.927288
0.955536
0.961923
0.688457
0.700281
0.953038
0.696541
0.950672
0.963399
0.816831
0.522483
0.782267
0.456267
0.814813
0.525954
0.785796
0.891914
0.672737
0.645106
0.932187
0.64114
0.92905
0.895059
0.819047
0.458374
0.532597
0.791927
0.529334
0.788111
0.821428
0.746041
0.428345
0.732277
0.437344
0.741982
0.430609
0.735311
0.751909
0.436662
0.433083
0.768279
0.430271
0.763979
0.756345
0.748346
0.439449
0.435868
0.741469
0.433457
0.738234
0.752591
0.61046
0.375151
0.436539
0.260771
0.606249
0.378156
0.443076
0.68868
0.424665
0.417672
0.721166
0.414691
0.717544
0.69195
0.61517
0.262875
0.383982
0.456115
0.380783
0.449606
0.619523
0.189527
0.186714
0.504187
0.609967
0.730575
0.855734
0.498759
0.616441
0.733554
0.320541
0.203503
0.537823
0.371226
0.313853
0.205874
0.542778
0.296942
0.350311
0.347895
0.300103
0.192674
0.196109
0.509767
0.860743
0.629673
0.740787
0.623146
0.737093
0.515368
0.3274
0.377332
0.211774
0.553757
0.208607
0.548302
0.334299
0.243648
0.245226
0.29431
0.363396
0.292186
0.366302
0.297329
0.42222
0.265473
0.598219
0.258464
0.592344
0.301403
0.298005
0.369499
0.365536
0.300589
0.888588
0.592137
0.614875
0.35588
0.884986
0.599299
0.618484
0.891082
0.356713
0.6125
0.625422
0.605375
0.621868
0.895449
0.506417
0.520474
0.803166
0.507305
0.522135
0.364915
0.366365
0.424049
0.422336
0.807222
0.50919
0.526029
0.508018
0.524063
0.369367
0.367881
0.98365
0.636012
0.903238
0.540275
0.981284
0.639725
0.907692
0.985577
0.544006
0.646683
0.915976
0.643243
0.91145
0.988248
0.682028
0.377826
0.572967
0.67774
0.379662
0.576138
0.329193
0.26678
0.330344
0.359625
0.378306
0.362184
0.267062
0.332726
0.331551
0.381659
0.367336
0.36478
0.394071
0.388072
0.397495
0.397982
0.406147
0.401334
0.391391
0.404459
0.400949
0.409561
0.40816
0.40472
0.414619
0.411547
0.41799
0.420186
0.4284
0.423237
0.414909
0.424803
0.42135
0.430955
0.429453
0.42628
0.417732
0.429906
0.419541
0.304383
0.305335
0.43179
0.423307
0.421368
0.307415
0.306335
0.592528
0.495624
0.626682
0.564632
0.591906
0.495726
0.626187
0.593203
0.565885
0.49667
0.62511
0.496251
0.625492
0.594032
0.856073
0.649313
0.894153
0.672281
0.854679
0.652825
0.893947
0.777736
0.602849
0.643157
0.761419
0.639805
0.760096
0.777586
0.857874
0.675913
0.659862
0.89303
0.656367
0.892933
0.859566
0.967782
0.704129
0.956951
0.701497
0.965916
0.707885
0.959564
0.961844
0.693834
0.713219
0.935748
0.709537
0.933873
0.963826
0.970584
0.705772
0.715377
0.966353
0.711692
0.963614
0.972716
0.826603
0.535779
0.79446
0.464577
0.823958
0.53885
0.798465
0.90546