/*--------------------------------*- C++ -*----------------------------------*\
  =========                 |
  \\      /  F ield         | OpenFOAM: The Open Source CFD Toolbox
   \\    /   O peration     | Website:  https://openfoam.org
    \\  /    A nd           | Version:  10
     \\/     M anipulation  |
\*---------------------------------------------------------------------------*/
FoamFile
{
    format      ascii;
    class       volScalarField;
    location    "2000";
    object      omega;
}
// * * * * * * * * * * * * * * * * * * * * * * * * * * * * * * * * * * * * * //

dimensions      [0 0 -1 0 0 0 0];

internalField   nonuniform List<scalar> 
8792
(
2.23085
3.32987
3.06565
3.60477
4.79769
6.17203
0.883146
0.918785
0.90057
0.874646
0.884078
0.93083
1.36967
4.84718
0.654194
0.529419
0.5452
0.537666
0.524685
0.538565
0.683298
1.45137
0.648412
0.42356
0.422028
0.431149
0.426369
0.428975
0.482117
0.716065
1.90541
6.56541
0.653298
0.369972
0.339816
0.353987
0.36157
0.366199
0.392564
0.488722
0.741852
1.05595
0.465489
0.539037
2.09694
2.8401
2.61217
2.65706
4.11006
4.23025
0.879585
0.895983
0.881594
0.85817
0.866308
0.905626
1.2173
3.51294
0.653754
0.528575
0.544585
0.537324
0.524331
0.536832
0.673653
1.30661
0.648355
0.42293
0.42144
0.4307
0.425965
0.427881
0.480005
0.676517
1.70699
4.82138
0.653302
0.369656
0.339453
0.353683
0.361322
0.36548
0.391307
0.487578
0.724882
1.02063
0.464882
0.537771
2.05848
2.71523
2.4924
2.49735
3.79205
3.9206
0.878667
0.894855
0.880341
0.856711
0.86575
0.902781
1.19217
3.04564
0.65347
0.528255
0.54443
0.53736
0.524425
0.536535
0.669026
1.29024
0.648311
0.422742
0.421381
0.430735
0.426005
0.428025
0.480695
0.678551
1.70175
4.51537
0.653295
0.369544
0.33944
0.353729
0.361377
0.365532
0.391537
0.487757
0.726088
1.01526
0.464914
0.537564
2.02975
2.62783
2.41007
2.40455
3.67839
3.81368
0.877652
0.89327
0.878723
0.854365
0.863632
0.898473
1.17105
2.79805
0.653161
0.527932
0.544256
0.537307
0.524366
0.536093
0.664629
1.26683
0.648269
0.42253
0.421282
0.43071
0.425972
0.428051
0.480917
0.679283
1.68392
4.42306
0.65329
0.369429
0.339409
0.353749
0.361399
0.365545
0.39167
0.487797
0.725934
1.00939
0.464856
0.537254
2.01174
2.57144
2.35769
2.35035
3.64609
3.7806
0.876656
0.891309
0.876679
0.851444
0.860994
0.893642
1.15129
2.6631
0.652855
0.527616
0.54407
0.537207
0.52423
0.535572
0.66046
1.24041
0.648231
0.422295
0.421138
0.430634
0.425885
0.428
0.480844
0.678876
1.66553
4.39865
0.653289
0.369304
0.339344
0.35373
0.361384
0.365539
0.391736
0.487771
0.725113
1.00366
0.464743
0.536854
2.00272
2.53999
2.32879
2.32021
3.64567
3.77379
0.875721
0.889121
0.874389
0.848328
0.858233
0.8889
1.13323
2.60615
0.652566
0.527322
0.543893
0.537091
0.648196
0.422053
0.420973
0.430534
0.653289
0.369172
0.339257
0.353686
1.99957
2.52554
0.62565
0.472185
3.67668
0.867484
1.06851
2.58024
0.521171
0.52959
0.632225
1.13322
0.474515
0.655722
1.61889
0.484713
0.714222
0.462072
2.02573
2.52824
2.32795
2.39296
3.89911
3.89757
0.871338
0.886401
0.876109
0.855205
0.869013
0.898111
1.30742
3.49602
0.654991
0.53762
0.553982
0.544773
0.531301
0.543385
0.675177
1.39173
0.648285
0.427723
0.427925
0.436219
0.43075
0.433067
0.487557
0.710883
1.68362
4.55999
0.653165
0.371485
0.343405
0.357585
0.364646
0.368835
0.395957
0.496119
0.736725
1.01803
0.473296
0.549072
1.41593
1.64138
4.40588
6.9857
1.37721
1.70613
2.29447
4.5968
1.8264
4.03695
5.6144
5.31081
1.96013
3.77528
2.45648
9.51303
0.957586
1.54125
1.33819
5.87625
0.903513
1.51117
3.17091
11.666
2.69025
1.63935
1.93414
4.99324
1.59861
1.70909
4.4097
6.73667
3.98942
5.0708
6.61293
6.30975
4.96373
4.72058
6.20746
6.19852
4.64481
4.49269
6.19448
6.05462
4.23454
6.36871
5.57714
1.29098
1.33328
4.27186
4.36142
1.28357
1.30595
2.71951
6.41303
2.79974
5.18024
5.30033
2.62083
2.9071
6.92701
4.74461
5.45849
6.9322
2.31511
0.917666
1.24852
1.25509
1.87354
0.866247
1.14914
9.30097
3.05045
4.7762
16.5147
3.17584
5.544
6.19941
7.05477
5.7903
1.05071
1.35245
1.72244
4.67813
1.0231
1.36852
3.33762
9.2565
3.13545
5.76066
6.63597
2.95359
3.60099
7.2346
1.34641
1.73241
6.20146
1.47231
1.59268
1.68607
3.52955
1.97713
4.04453
6.97876
5.76941
2.39543
4.06454
1.96832
5.8609
0.938195
1.57258
1.33877
8.96865
0.913925
1.5452
2.47009
2.88397
10.8434
1.57798
1.65681
6.66806
1.71854
1.94321
3.12602
9.51785
4.05864
10.9328
6.14694
4.95404
3.23365
13.9603
8.57675
6.50761
7.90703
2.77223
5.59658
11.275
3.49527
4.95995
6.64364
9.78152
7.20281
5.02166
6.75302
7.95931
2.15684
3.72603
3.50025
7.28095
3.86278
3.83987
2.16267
4.65322
4.89256
3.02879
4.70395
5.11588
7.49226
7.7362
4.13735
7.49391
4.05632
3.4097
1.0619
1.23844
2.11295
2.96758
1.05288
1.20785
3.1394
1.31183
1.26769
2.89155
2.72328
1.27935
1.23829
3.30124
1.22706
1.21212
2.66169
2.69174
1.19858
1.1818
4.46024
1.23997
1.20703
2.72931
3.9709
1.20244
1.2511
5.37594
6.09882
5.71648
6.19566
6.14389
5.42401
5.68228
10.334
19.831
1.03908
0.57544
0.777791
0.682396
0.995428
0.560103
0.745497
1.14903
0.752489
0.820258
1.02819
1.11884
0.737149
0.800968
3.75084
4.46646
4.4549
7.37749
4.35166
4.10693
7.2422
6.90935
4.0642
4.1264
6.7938
6.27054
4.16824
6.21569
5.77962
6.11913
3.8652
1.28493
1.28769
4.80174
5.67682
1.32365
1.37063
1.83477
0.893316
1.2245
1.25807
1.89243
0.86586
1.17839
4.20534
1.03145
1.37375
1.8702
5.42784
1.06863
1.35966
9.16288
8.31656
11.1719
9.31151
4.35096
3.77053
2.50088
2.24132
3.63721
2.63457
4.4235
20.9669
6.40229
8.62566
7.04378
13.8695
10.2308
11.1122
4.44573
2.25827
2.42629
1.94832
2.34871
2.70349
3.68748
9.74697
11.9745
5.44392
6.15666
7.8023
10.078
8.04999
7.61129
5.47695
1.5867
1.67238
1.49502
1.52694
1.87466
1.42382
1.58434
8.0757
13.0732
9.47997
11.7562
10.5305
2.32556
1.70224
1.82605
1.63024
2.44312
6.15702
4.24319
5.63823
6.7931
5.95541
6.10656
6.48345
5.8438
5.74013
6.40981
5.57627
5.66991
6.1468
5.48754
5.44306
6.01139
5.24912
5.35621
6.56897
4.80294
5.07636
7.66247
6.33038
9.08365
2.68805
5.04705
2.52653
2.47089
5.52555
4.95661
2.60385
5.45683
6.24064
6.58712
5.84224
6.29185
5.48381
5.7994
15.3159
5.76498
6.32905
5.177
10.3492
7.53288
8.01817
16.5053
8.57329
9.12749
6.95551
20.037
8.77458
8.99208
9.6864
12.9767
13.1348
16.528
16.2422
8.95812
6.39121
7.72393
6.60941
5.34712
10.1
5.34289
5.75131
8.05907
5.92242
8.97922
8.14682
9.14209
4.13509
2.86009
5.39522
4.10199
2.71473
2.26766
2.37484
6.58129
7.82686
10.2612
7.31949
8.01655
6.97432
7.08834
6.35511
2.8356
2.97135
2.8407
5.01863
5.42265
2.5809
9.67885
4.23631
3.40965
3.3688
10.6496
6.83757
4.6392
4.80528
7.23062
8.48401
6.23321
9.24206
14.1471
7.77488
2.70373
5.05602
5.86604
4.71146
8.21337
3.00332
7.8335
2.65924
5.67793
8.74843
4.69765
14.3322
2.90722
8.00291
5.30055
6.80005
8.97269
6.86723
3.09618
3.57703
1.94936
1.99503
7.1099
3.24147
3.64079
6.53452
7.47003
4.80929
4.98468
2.95895
5.31868
5.34257
7.92045
9.36392
7.89286
3.14388
3.6722
3.50981
6.06485
6.58146
3.04329
4.2793
4.3608
9.53551
6.7482
9.33277
6.16024
5.94017
6.83852
8.80974
11.5214
8.9013
8.41696
9.32951
5.79944
5.69927
10.8219
6.42876
7.49001
7.75239
5.61461
9.30185
17.7689
19.2488
19.3238
13.7135
6.27255
7.49224
11.1589
5.3401
4.46101
4.52024
5.11767
5.54252
4.21469
4.67676
10.0671
8.92008
7.89628
7.15965
10.6157
8.19747
10.8745
8.85123
8.36366
8.08099
8.3014
3.26486
3.13312
3.07529
1.9904
2.07473
1.97738
2.08626
3.03322
2.8886
2.85178
1.82842
1.9148
1.82897
1.91783
3.72327
3.06433
3.19262
2.03601
2.1362
1.9745
2.1991
2.44161
5.40108
2.47824
4.86343
5.10775
2.38416
2.54413
2.5982
1.03147
1.17474
2.24126
3.46219
1.07077
1.27324
2.37433
1.25717
1.21396
3.38291
3.19344
1.3465
1.29827
2.34933
1.1795
1.16164
3.11455
3.42889
1.25656
1.2427
3.62191
1.18075
1.24515
3.60448
4.44084
1.27031
1.21564
7.15065
7.15618
6.73217
6.32536
6.32635
7.12798
7.23324
6.99101
7.03436
6.60486
6.2092
6.1998
6.98797
7.03033
6.70436
6.7231
6.29624
5.91538
5.90766
6.70129
6.72657
6.58968
6.61985
6.20891
5.81894
5.81506
6.59128
6.61647
9.16352
5.78313
5.95067
5.5861
9.19959
6.24014
5.98116
6.03343
6.32008
6.94845
7.16726
6.51419
7.21122
7.38997
3.44003
3.20665
3.19968
1.91719
2.15549
2.04028
2.03386
3.20139
2.95395
3.00886
1.90717
1.98353
1.89405
2.00011
3.03607
3.0004
2.82948
1.81176
2.04446
1.90379
1.91408
3.96406
2.41593
4.49759
3.79893
2.31236
2.13463
2.25463
6.21896
4.11459
5.28536
7.33963
5.53859
5.6085
7.12049
5.4468
5.33773
7.04228
5.19728
5.27186
6.75715
5.15453
5.24477
6.58396
6.20289
5.60963
6.59546
6.09979
6.45805
7.91812
8.48192
8.43051
7.17425
6.78715
6.46198
7.50628
6.41828
7.5944
7.15969
6.87883
6.49181
6.08451
6.91715
6.09291
6.87964
6.91984
6.80619
6.40757
6.01556
6.84586
6.00841
6.81228
6.84316
6.56814
6.17278
5.75804
6.58387
5.78287
6.56724
6.58515
6.80749
6.02985
5.639
6.46804
5.64059
6.51738
6.62663
6.46355
6.37983
6.23571
7.05213
7.33627
7.1803
6.9078
10.1374
7.82413
3.92215
4.86734
3.8159
4.55634
4.09233
5.05911
5.27846
2.91732
1.05023
1.20062
2.06702
2.81887
1.04897
1.19704
4.92739
3.8753
4.83873
3.79462
4.50133
3.75306
4.41412
3.84213
4.72443
4.7737
2.79128
1.0476
1.19355
2.03587
2.72067
1.04619
1.19006
3.74482
4.40285
3.73064
4.39939
4.68654
3.77744
4.6576
3.76377
4.61985
4.63585
4.76092
4.52329
4.45184
4.22601
4.45032
4.33824
4.15358
4.10593
4.13089
3.98827
2.67238
1.27285
1.23159
2.74229
2.57636
1.27024
1.22861
2.62583
1.19196
1.17279
2.51821
2.50778
1.18916
1.16818
3.82911
1.19325
1.24237
2.52912
3.58534
1.18828
1.23855
4.20394
1.27744
1.29752
3.84373
3.96455
1.27534
1.29271
6.47335
1.36151
1.64812
3.9695
5.77377
1.35239
1.61759
1.75593
3.69135
1.68983
3.26348
5.02004
4.6184
2.28024
3.13024
2.18088
5.63274
0.892672
1.48854
1.29859
5.07137
0.892876
1.48545
2.62422
2.53116
4.50052
1.01952
1.35696
1.70568
4.20423
1.01898
1.35278
1.57981
1.69343
4.56106
1.56985
1.68327
4.3964
4.17311
4.30587
4.08579
4.10003
4.06201
4.0108
3.98176
3.9634
3.92203
2.55023
1.26752
1.22554
2.64667
2.48483
1.26458
1.22237
2.4777
1.18625
1.1637
2.42771
2.40602
1.18322
1.15929
3.53658
1.18344
1.23464
2.42348
3.44376
1.17855
1.23058
3.91849
1.27247
1.28777
3.69634
3.83144
1.26907
1.28278
5.60317
1.34378
1.59138
3.8307
5.28222
1.33545
1.56728
1.67443
3.17334
1.62948
2.95682
4.53136
4.37493
2.09933
2.84847
2.02784
4.95492
0.892777
1.48131
1.27944
4.73882
0.891823
1.47567
2.50759
2.45266
4.15176
1.01812
1.34831
1.69
4.06101
1.01703
1.34372
1.56063
1.6791
4.43653
1.55204
1.66589
4.29327
4.07301
4.28597
4.06281
3.9975
3.96691
3.98622
3.94385
3.91591
3.91065
2.70117
1.04472
1.18656
2.01523
2.65438
1.04326
1.18313
2.46704
1.26148
1.21911
2.58292
2.42496
1.2583
1.21584
2.38702
1.18006
1.15495
2.36834
2.34273
1.17687
1.15074
3.4255
1.17363
1.22643
2.36135
3.3946
1.16884
1.22236
3.81414
1.26538
1.2779
3.64978
3.78286
1.26166
1.2733
5.22581
1.32764
1.54551
3.78517
5.1494
1.32048
1.52626
1.61432
2.90128
1.57297
2.77687
4.35338
4.3545
1.96592
2.68864
1.91368
4.69909
0.890045
1.46908
1.25377
4.63917
0.887757
1.46215
2.43821
2.40708
4.0452
1.01569
1.33914
1.671
4.02052
1.01423
1.33487
1.54415
1.6607
4.40198
1.53723
1.64751
3.72832
4.40439
3.72514
4.42676
4.28993
4.06531
4.31
4.08036
3.98853
3.94094
4.00358
3.93966
3.91175
3.91945
2.64238
1.04178
1.17971
2.00424
2.61549
1.04033
1.1764
2.41425
1.25507
1.21257
2.546
2.39068
1.25187
1.20937
2.33124
1.17365
1.14667
2.3343
2.30552
1.17049
1.14281
3.38989
1.16418
1.2184
2.32621
3.38542
1.15978
1.21468
3.77716
1.25801
1.26901
3.64436
3.76796
1.25459
1.26516
5.14345
1.31396
1.50935
3.77444
5.1505
1.3082
1.49477
1.55981
2.74794
1.52563
2.69141
4.36975
4.43657
1.87054
2.61531
1.83594
4.63288
0.884984
1.45517
1.22761
4.63398
0.881953
1.4485
2.39912
2.38334
4.01688
1.01264
1.33087
1.65578
4.01208
1.01107
1.32737
1.53115
1.64302
3.72485
4.43495
3.72486
4.45719
4.31778
4.0863
4.33953
4.10258
4.00968
3.94056
4.02699
3.94432
3.92263
3.93208
2.60912
1.03888
1.17315
1.99987
2.59615
1.03749
1.17006
2.38515
1.24872
1.20628
2.52798
2.37426
1.24571
1.20334
2.29902
1.16744
1.13916
2.31787
2.2852
1.16456
1.13579
3.38595
1.15564
1.21121
2.30778
3.39031
1.15185
1.20809
3.7665
1.25146
1.26172
5.15608
1.30313
1.48228
1.51519
2.68081
4.46102
1.80876
3.72499
4.46322
4.34564
4.10695
2.59348
1.03612
1.16709
2.372
1.24284
1.20058
4.9332
1.41548
1.42361
2.62762
4.34008
2.58126
1.72561
1.13248
4.53598
0.833011
1.40901
2.3381
1.62051
0.997044
3.67003
1.24693
3.66936
3.71863
1.24157
1.24869
4.93512
1.27755
1.41595
3.73526
5.57221
1.28407
1.45317
1.42293
2.62659
1.50181
2.90209
4.337
5.07744
1.72517
2.8415
1.79075
4.53313
0.832991
1.40848
1.1635
4.80009
0.84344
1.42739
2.33689
2.37045
3.92728
0.996318
1.30811
1.63576
4.00291
0.998284
1.31335
2.48177
2.64126
2.59377
1.84544
1.77393
1.79985
1.82147
2.3118
2.4475
2.45225
1.70332
1.64207
1.64308
1.6923
2.52
2.66491
2.79649
1.86411
1.65269
1.74654
1.77251
2.31308
3.96185
2.13184
4.45925
2.18131
4.51295
2.26746
2.5069
4.05083
2.189
4.29161
2.30023
4.57366
2.33175
10.2026
4.92416
5.97031
8.14992
8.59987
7.14213
2.26876
5.02464
5.55812
12.4738
2.96789
5.37706
6.45737
3.02532
4.84485
2.56085
5.08556
2.82257
5.36347
2.74409
2.55951
4.70365
4.45662
2.40435
4.78329
2.48455
2.46985
2.89106
8.25487
4.99707
3.72988
5.45086
4.1994
2.7327
5.76404
4.27134
4.73254
5.04478
9.29419
7.24624
3.73646
1.96933
2.80572
2.09655
3.112
2.29362
3.33725
5.4219
4.65852
6.80984
2.76957
8.39698
3.05385
4.67908
5.86874
6.81434
4.19861
8.58714
2.70659
11.1519
2.89677
5.63757
6.22906
4.84036
5.55795
5.52426
2.02615
6.45593
3.12533
3.24901
3.42066
3.4818
1.93407
5.89556
6.36835
2.82321
4.12745
4.44306
4.34128
4.6979
6.55789
6.92669
3.14858
5.29403
5.49853
2.73324
5.9124
2.81962
3.04227
3.8377
6.34025
4.4558
6.69017
4.71692
3.64982
5.40595
5.25377
5.57253
5.29867
4.86322
5.19773
5.04675
4.79946
5.13109
4.96636
4.60016
4.92006
4.76268
4.53867
4.84004
4.43107
4.41615
4.64189
5.39712
5.6693
2.37575
4.53127
4.44271
2.26265
4.72954
2.31771
2.32232
4.62797
2.35264
2.41817
2.38331
4.33781
4.59017
2.32141
4.96814
3.63832
2.53391
3.82204
2.60447
2.18302
2.13026
2.88162
4.68473
3.48731
10.9304
2.51256
5.64819
4.79532
15.2816
8.25071
4.64237
2.59992
1.99169
2.20418
3.12086
3.86457
2.585
6.17575
6.98052
2.33797
5.03032
4.01333
12.2025
3.11383
12.0345
12.0876
4.80291
6.85382
7.41611
2.05397
2.70256
3.19954
7.66131
1.7851
3.42859
3.75482
4.05266
4.09755
2.69413
4.6442
4.66249
6.49524
7.60314
3.73381
6.38519
4.10555
3.37748
7.36151
4.65353
3.05484
2.95739
3.0441
1.84875
1.93047
1.96407
1.81421
2.98069
2.84133
2.92843
1.9215
1.87341
1.90753
1.89016
2.80918
2.7727
2.86018
1.83932
1.79771
1.82859
1.80723
2.74618
2.6256
2.70933
1.76288
1.73519
1.76563
1.73218
2.80339
2.59296
2.67845
1.73936
1.77304
1.81504
1.705
2.851
2.84908
2.97619
1.94026
1.82145
1.87291
1.89006
4.19537
3.35408
2.17867
3.53076
2.23472
2.05163
2.00277
4.6216
3.86466
4.81192
4.65681
4.76612
4.91929
4.23759
4.66239
4.55088
4.17066
4.42257
4.48528
4.0462
4.39394
4.4253
4.08227
4.686
4.56797
4.33168
4.71919
4.90176
5.70548
6.69323
2.176
4.23909
2.29814
2.28598
3.91104
2.15972
4.36333
5.21609
2.32624
2.4231
2.42887
5.23855
5.47072
2.33268
2.71864
4.92381
5.58099
2.51312
2.55962
2.49254
5.22766
3.39592
2.43037
4.72818
3.78941
2.61091
2.21644
2.06914
4.04698
2.83069
5.49226
4.16736
2.84315
2.34605
2.38103
2.60269
2.70749
2.70384
1.73422
1.85578
1.68937
1.90093
2.41588
2.48753
2.52936
1.75463
1.69952
1.70733
1.74625
2.31714
2.60246
2.5132
1.6996
1.64388
1.61476
1.75388
3.04037
2.06378
4.11398
3.43417
2.21036
2.03489
1.89255
3.95389
2.32255
4.75015
4.01468
2.33478
2.23549
2.26324
5.06197
4.72941
4.9325
4.63011
4.76887
4.83879
2.9079
1.92157
1.80105
2.88067
2.87177
1.79218
1.92016
2.84844
2.81235
2.84062
1.78631
1.91791
1.9194
1.7802
4.71629
4.46123
4.67717
4.43293
4.62923
4.64885
2.78629
1.91553
1.77442
2.76564
2.76206
1.76803
1.91226
2.74218
2.71951
2.73985
1.76212
1.90426
1.90852
1.75577
4.60839
3.73858
4.60054
4.61654
4.39755
4.60926
3.73398
4.59247
4.59546
4.39677
4.60588
4.60605
2.79002
1.86072
1.87924
2.80334
1.85546
1.87695
2.7529
2.57651
1.72336
1.71974
1.71631
2.57671
2.5416
1.71949
2.7737
1.79313
1.86636
1.85332
2.6066
2.72052
1.77855
4.26452
2.24406
2.3053
2.2831
3.99619
4.1403
2.21971
4.2685
2.36459
2.4222
2.39876
4.11604
4.15249
2.3377
4.00768
4.65722
4.43318
3.84525
1.78136
0.850463
1.12692
1.20316
1.73528
0.845797
1.12909
7.36242
2.5703
5.02415
4.76214
3.34548
6.66909
2.47462
5.61323
5.40756
5.26903
2.69573
2.99225
2.95756
4.70558
5.12626
2.66545
1.84257
2.69027
1.83751
1.86378
2.66406
1.86801
2.63901
1.69877
2.45841
1.70725
2.46874
1.70325
2.43518
1.70262
1.81202
2.60844
1.73957
2.46953
1.82207
2.57994
1.72897
2.22103
3.92417
2.17473
3.75156
2.2388
3.88138
2.15712
2.32654
3.95701
2.27504
3.88252
2.34267
3.91905
2.25685
3.96955
3.54107
4.05154
3.47162
1.69664
0.842526
1.13056
1.18147
1.66004
0.838927
1.12921
4.19642
5.45538
2.28483
2.97171
4.2967
5.21309
2.23585
5.06474
5.00359
2.86603
4.88131
2.60641
4.48082
2.88628
4.83626
2.58825
1.82124
2.61097
1.84324
2.57696
1.84847
2.56037
1.81572
1.677
2.37741
1.68644
2.3944
1.682
2.36195
1.68127
1.77484
2.51406
1.69683
2.38821
1.78329
2.49769
1.68851
2.17161
3.80341
2.12108
3.66522
2.1853
3.78888
2.10744
2.27126
3.85037
2.21204
3.80101
2.28234
3.83766
2.20001
3.79543
3.33441
3.81932
3.30861
1.62596
0.835228
1.12571
1.16099
1.59472
0.831426
1.12078
3.96292
4.78152
2.10838
2.75558
3.99447
4.70257
2.0745
4.89855
4.87904
2.80852
4.75473
2.54835
4.41343
2.82025
4.73875
2.53689
1.82253
2.52175
1.79982
2.56156
1.82729
2.51219
1.79489
1.65629
2.32546
1.66536
2.34858
1.6606
2.31637
1.66085
1.74588
2.46063
1.66337
2.3411
1.75212
2.45164
1.65746
2.1389
3.76591
2.08366
3.64421
2.1484
3.76266
2.07418
2.23524
3.81702
2.17198
3.77755
2.24145
3.81384
2.165
3.78645
3.27531
3.77887
3.27529
1.56637
0.827705
1.11494
1.14203
1.54103
0.823973
1.10847
3.93237
4.58822
1.98658
2.64327
3.92447
4.57192
1.96413
4.84424
4.83715
2.7786
4.70784
2.51511
4.39627
2.78434
4.70092
2.50892
1.80554
2.49169
1.78152
2.53506
1.80913
2.48711
1.77761
1.6397
2.29632
1.64778
2.32434
1.6428
2.29176
1.64447
1.72538
2.43189
1.63901
2.31539
1.72958
2.42734
1.63524
2.12059
3.75973
2.06154
3.6474
2.12689
3.7599
2.05528
2.21501
3.80979
2.14968
3.77344
2.21761
3.80924
2.14621
3.84703
3.29513
3.82958
3.30566
1.51861
0.820384
1.10179
3.99279
4.56321
1.90674
2.60063
3.97047
4.56288
1.89318
1.79356
2.47836
1.76761
2.52374
1.79587
2.47673
1.76489
1.06756
1.40662
0.777439
1.03486
2.16814
3.69691
2.11221
3.67698
2.16627
3.69966
2.1118
3.7862
3.28234
3.75955
3.29986
1.40809
0.778142
1.0362
1.09822
1.46225
0.794452
1.06075
4.0589
4.37443
1.81095
2.59054
4.04602
4.39397
1.81624
4.71338
4.71311
4.6603
4.62406
4.52333
4.59909
4.39043
4.46428
4.52554
4.35115
4.42479
4.29632
4.29565
4.36787
4.40742
4.31873
4.27739
4.36267
4.23654
4.24594
4.2244
4.11248
4.18335
4.16243
4.09882
4.16211
4.30005
4.06671
4.23093
5.31699
5.27267
4.02136
4.14142
4.17921
5.20722
5.23372
2.72138
1.78601
1.79457
1.7904
2.63569
2.68478
1.78231
2.77133
1.84723
1.85136
1.8745
2.69132
2.7206
1.8718
1.78638
2.60448
2.62493
1.77506
2.65334
1.77858
1.78266
2.54413
1.75178
1.68973
1.6845
2.58001
2.51047
1.74398
1.71168
2.54595
2.4838
1.71182
2.51108
1.71537
1.70825
1.67827
2.54114
2.45605
1.72635
2.48167
1.73349
1.67395
3.24263
2.1599
1.97935
1.96619
3.72672
3.17414
2.13868
1.84257
2.56491
2.64093
1.75232
2.67774
1.76377
1.83246
1.95672
3.64694
3.08014
2.11311
3.12258
2.12757
1.94726
2.32382
4.18711
2.29902
2.27478
4.1
4.08529
2.30279
2.26983
3.90989
3.97871
2.18739
4.04872
2.20597
2.25122
2.25923
4.02318
3.95388
2.26945
4.01065
2.28598
2.2398
4.75376
3.4728
2.64403
2.59755
6.20569
4.59225
3.3265
2.37808
4.03255
4.00557
2.29426
4.06843
2.31506
2.36068
2.55786
5.97948
4.36362
3.16468
4.46431
3.23504
2.52789
6.37234
5.94579
2.64252
2.00705
3.12393
3.00854
1.72471
2.55248
1.97516
6.02881
2.60787
4.24117
3.96936
3.49536
5.6112
2.51618
4.27481
3.62383
3.72271
4.15199
5.66991
5.46089
2.92621
1.70465
2.433
1.94785
2.48667
1.95917
2.85855
3.77537
3.36677
5.0782
2.39947
5.31092
2.45119
3.62204
4.86107
4.7279
4.5014
5.19966
4.89391
4.27524
4.56865
3.22599
5.76192
2.34088
6.15817
2.40046
4.4248
4.72749
3.95971
4.09376
4.52271
2.96442
3.14902
1.89181
1.87272
5.40859
2.87175
3.11824
1.86406
5.21871
2.74233
3.07446
2.80634
3.09772
1.85088
4.02418
4.28511
2.58639
3.96515
4.16325
6.39896
6.27234
5.14658
5.25731
2.55673
3.88806
4.01527
3.92263
4.07796
6.13494
6.19076
3.535
2.50708
2.10788
2.09857
4.36799
3.47773
2.48969
2.09342
4.27344
3.40127
2.46446
3.43586
2.47834
2.08625
6.22931
4.30352
3.53578
3.47556
6.14966
4.20023
2.93183
4.62188
4.94058
2.62358
5.01883
2.64469
2.90764
3.43224
6.0467
4.06146
6.08864
4.12106
3.39724
4.35541
4.2958
4.25486
4.24112
4.1338
4.20053
4.32598
4.2053
4.22548
4.10546
4.15059
4.1711
4.05859
4.06006
4.01804
4.05031
4.02785
4.01336
4.03106
3.96699
3.98825
4.00163
3.96549
3.98572
4.11306
3.94483
4.09175
5.18881
5.17692
3.93135
4.06487
4.07606
5.16838
5.17052
1.7732
2.59844
1.77061
2.52628
1.77802
2.57413
1.76587
2.66747
1.82679
1.83222
1.8589
2.59559
2.61621
1.85394
1.76769
2.50447
2.53192
1.75523
2.55195
1.76049
1.76243
1.66317
2.4322
1.71662
2.45102
1.6681
2.41047
1.70936
1.69301
2.44716
2.39483
1.69217
2.41394
1.69725
1.68809
1.65689
2.42703
2.37274
1.69284
2.39056
1.69977
1.65178
1.92812
3.04414
2.102
3.49797
1.93779
3.01362
2.08761
1.80197
2.44487
2.53311
1.70763
2.55487
1.71714
1.79257
1.9188
3.46754
2.96599
2.06399
2.98768
2.07727
1.90969
2.20901
3.90963
2.25462
3.88219
2.22653
3.87482
2.23975
2.21007
3.72032
3.82275
2.13035
3.84829
2.146
2.19433
2.19791
3.85367
3.8269
2.2142
3.84785
2.22679
2.1829
2.47366
4.28172
3.10405
5.46668
2.49897
4.21545
3.05048
2.31016
3.85314
3.86731
2.22542
3.88973
2.24042
2.29643
2.44912
5.36115
4.12033
2.96195
4.16237
3.00316
2.4284
5.18274
5.30226
2.74027
2.38343
1.93488
1.65968
2.79703
2.33792
1.92085
3.38122
4.8964
2.35136
3.09231
3.49251
4.75381
2.30635
3.9046
3.36935
3.41472
3.85506
5.09866
5.04547
2.688
1.64414
2.2566
1.88985
2.29527
1.90546
2.64035
3.28528
3.02058
4.56469
2.22401
4.64486
2.26361
3.20326
4.46244
4.41057
4.29096
3.83563
4.43163
3.74483
4.10943
2.90552
4.88541
2.14794
5.02857
2.18879
4.04676
4.2585
3.60394
3.65968
4.17192
1.82355
2.68698
3.05028
4.86317
1.83949
2.63146
3.02447
1.8101
4.79259
2.53699
2.97757
2.58405
3.00077
1.79315
3.86049
3.9686
2.48713
3.83825
3.93413
6.09522
6.06787
4.92407
4.95827
2.46844
3.80851
3.89116
3.82151
3.90901
6.03739
6.04944
2.07245
3.37208
2.45262
4.11227
2.0802
3.34761
2.43864
2.06637
4.08277
3.31065
2.41522
3.32746
2.42748
2.0592
3.34434
6.01993
4.01687
3.36829
6.00395
3.98379
2.84903
4.45529
4.77523
2.55931
4.80177
2.57403
2.83327
3.32502
5.99245
3.94244
5.99561
3.95972
3.30946
4.28659
4.19247
4.18547
4.13719
4.0657
4.12944
4.28454
4.18392
4.18299
4.06265
4.12607
4.12609
3.95257
3.98975
3.94359
3.95115
3.95619
3.94157
3.98633
3.93746
3.93889
3.94872
3.93275
3.9357
4.05715
3.91233
4.05216
5.16937
5.17259
3.91067
4.04775
4.04915
5.18282
5.17725
1.75122
2.51375
1.74944
2.45122
1.75656
2.49761
1.74408
2.59604
1.83773
2.53291
1.80499
2.5457
1.81028
1.83264
1.74548
2.4372
2.4708
1.73327
2.48329
1.73839
1.74041
1.64035
2.35643
1.68366
2.37043
1.64537
2.342
1.67728
1.67104
2.38047
2.33611
1.67074
2.34813
1.67565
1.6663
1.63419
2.35556
2.31776
1.66322
2.32903
1.66882
1.62953
1.89291
2.94777
2.05482
3.41176
1.90108
2.93275
2.043
1.76662
2.37371
2.47126
1.67186
2.48345
1.67893
1.75928
1.88535
3.4017
2.91018
2.02547
2.92029
2.03549
1.87831
2.16128
3.81099
2.20348
3.80076
2.17403
3.79895
2.19313
2.1647
3.656
3.7709
2.08884
3.77839
2.10025
2.15326
2.15463
3.79055
3.78383
2.1762
3.79019
2.18448
2.14409
2.3921
4.08718
2.92619
5.1873
2.40839
4.06118
2.89599
2.25952
3.79176
3.82165
2.18012
3.82836
2.18942
2.25102
2.37614
5.163
4.02519
2.84967
4.04091
2.87043
2.3636
5.01275
5.01841
2.55766
2.22062
1.8736
1.60027
2.59688
2.18831
1.85771
3.07447
4.50886
2.18668
2.85291
3.1333
4.47346
2.15248
3.78185
3.28017
3.29091
3.77684
5.02393
5.04763
2.52233
1.58601
2.1322
1.82647
2.15851
1.84173
2.491
3.0254
2.81176
4.44979
2.09164
4.45489
2.12055
2.98528
4.34432
4.34527
4.14433
3.54973
4.18684
3.52197
3.93801
2.71872
4.61054
2.01378
4.64969
2.04156
3.93001
4.19224
3.48526
3.49137
4.17757
1.76248
2.4981
2.95756
4.6704
1.77917
2.45972
2.93886
1.74911
4.65124
2.39947
2.90964
2.42948
2.92358
1.73355
3.79926
3.87871
2.4264
3.79243
3.87044
6.02978
6.02511
4.85291
4.86438
2.41559
3.78493
3.8622
3.78804
3.86517
6.02126
6.02262
2.04742
3.29707
2.40604
4.03388
2.05373
3.28588
2.39603
2.04287
4.02594
3.26984
2.38144
3.27703
2.3891
2.03762
3.28744
5.99245
3.9304
3.29712
5.99415
3.9222
2.79912
4.40669
4.7161
2.52045
4.72617
2.52897
2.79076
3.27994
5.999
3.91365
5.99653
3.9169
3.27418
4.59105
3.72673
4.59075
4.60786
4.41099
4.61133
3.72573
4.59224
4.59123
4.41862
4.62058
4.6157
4.18732
4.29562
4.19242
4.12847
4.06942
4.13257
4.30248
4.20539
4.19862
4.0746
4.14357
4.13776
3.93845
3.99257
3.94118
3.93194
3.93955
3.9327
3.99774
3.94976
3.9451
3.9392
3.93715
3.93456
4.04749
3.91381
4.04815
5.18874
5.19475
3.9164
4.05111
4.04941
5.20605
5.20057
2.6451
1.721
1.88059
2.63197
1.72659
2.63498
1.87586
1.71612
2.62307
2.61885
1.86698
2.62635
1.87136
1.71107
1.73027
2.45985
1.72782
2.40507
1.73492
2.4505
1.72312
1.81768
2.55313
2.49734
1.78576
2.5041
1.79018
1.81348
1.72533
2.39723
2.43581
1.71411
2.44249
1.71821
1.72129
1.61951
2.30771
1.65547
2.32146
1.6237
2.29914
1.65066
1.65113
2.34079
2.30196
1.6521
2.30851
1.65601
1.64742
1.61426
2.31276
2.28537
1.63988
2.29162
1.64381
1.61069
1.86594
2.90187
2.01965
3.38705
1.87186
2.89526
2.01126
1.73981
2.33293
2.43746
1.64537
2.44389
1.65014
1.73467
1.8606
3.38567
2.88581
2.00033
2.88992
2.00712
1.85581
2.13078
3.77948
2.16945
3.77301
2.13945
3.77652
2.16302
2.13594
3.64379
3.75994
2.06322
3.76084
2.0709
2.12826
2.12796
3.77004
3.77361
2.15321
3.77471
2.15801
2.12099
2.34165
4.01314
2.83248
5.14286
2.35104
4.00383
2.81921
2.22771
3.77561
3.81052
2.154
3.81183
2.15899
2.22353
2.332
5.14574
3.99122
2.80094
3.99676
2.80854
2.3253
5.11789
5.07998
2.43906
2.10813
1.81135
1.54794
2.46321
2.08727
1.79722
2.92754
4.45529
2.06472
2.72435
2.95286
4.46876
2.04069
3.79826
3.28607
3.27917
3.81301
5.15828
5.19894
2.41812
1.53611
2.05259
1.77088
2.06848
1.78347
2.40039
2.90822
2.7057
4.51022
1.99914
4.48778
2.01856
2.8943
4.38982
4.41233
4.24414
3.47271
4.24522
3.48205
3.93922
2.62698
4.56145
1.92436
4.56622
1.94205
3.95717
4.32011
3.50116
3.48159
4.32226
1.70732
2.37739
2.89879
4.63055
1.72136
2.35495
2.88898
1.69679
4.63134
2.32434
2.87544
2.34023
2.88187
1.68459
3.78329
3.86076
2.39312
3.78215
3.86041
6.02071
6.02037
4.82713
4.83176
2.38741
3.78179
3.86161
3.78194
3.86078
6.01985
6.02018
2.02968
3.26412
2.37657
4.01454
2.03403
3.25949
2.37076
2.02705
4.01298
3.2531
2.36355
3.25604
2.3677
2.0236
3.26648
6.00111
3.91185
3.26981
6.00263
3.91099
4.59354
3.72474
4.59501
4.62559
4.44291
4.63052
3.72477
4.59794
4.59649
4.45038
4.63938
4.63515
4.21235
4.32544
4.21914
4.14959
4.09212
4.15553
4.33275
4.23143
4.22555
4.0976
4.1663
4.16114
3.955
4.01577
3.96037
3.94021
3.94174
3.94354
4.02157
3.97061
3.96566
3.94302
3.95015
3.94695
4.05304
3.9259
4.05509
5.21104
5.21549
3.92906
4.05908
4.05712
5.22262
5.21937
1.70214
2.61253
1.86284
2.60382
1.70667
2.60711
1.85887
1.69834
2.59957
2.59901
1.85186
2.60271
1.85525
1.69442
1.71346
2.43016
1.70973
2.38068
1.71688
2.42558
1.70624
1.80188
2.5311
2.48061
1.77068
2.48344
1.77397
1.79897
1.70976
2.37706
2.41894
1.69976
2.42184
1.70256
1.70703
1.60301
2.27989
1.63379
2.29371
1.60597
2.27545
1.63066
1.63577
2.32069
2.28501
1.63819
2.28795
1.64083
1.63334
1.59895
2.28896
2.26866
1.62308
2.27163
1.62542
1.59664
1.84761
2.8825
1.99762
3.38709
1.85146
2.88004
1.9921
1.72122
2.31111
2.42039
1.62703
2.42347
1.62987
1.71793
1.84419
3.38857
2.87677
1.9863
2.87812
1.99066
1.84122
2.11399
3.77307
2.14962
3.7655
2.11963
3.77276
2.14613
2.31333
3.98696
2.79496
5.16157
2.31796
3.98342
2.7913
5.27394
5.2379
2.37299
2.03836
1.7587
1.5061
2.38534
2.02666
1.74779
2.87893
4.53436
1.9813
2.67363
2.88467
4.55872
1.96598
4.4853
3.50756
4.39881
4.59925
3.7251
4.6004
4.64311
4.46843
4.64631
4.23668
4.351
4.24121
4.17088
4.11062
4.17482
1.68777
2.59604
1.84876
2.59144
1.69115
2.59359
1.8459
1.70175
2.41655
1.69665
2.37036
1.70389
2.41479
1.69448
3.8337
2.72006
2.24087
3.28318
3.75788
4.94669
2.28096
1.42396
1.94943
1.65401
1.95069
1.65493
2.27873
2.78316
2.6306
4.31914
1.84935
4.3249
1.85097
2.77988
4.34578
4.0546
2.58354
4.3762
1.81291
4.38076
1.81342
4.05477
4.53996
3.59967
3.59538
4.49832
1.62266
4.53928
2.30919
2.83511
2.31351
2.83694
1.6207
4.71491
4.7167
2.33874
3.7204
3.81439
3.72216
3.81537
2.08312
3.67011
2.11443
3.66982
2.08685
3.67058
2.11276
3.74275
2.06313
2.11792
2.09737
3.59891
3.67649
2.04051
2.1283
3.73336
2.1048
2.08833
3.67744
3.68109
2.11516
2.24282
3.83383
2.71956
4.96385
2.23939
3.84193
2.72859
3.80429
2.13185
2.20776
2.17531
3.68702
3.72075
2.11484
4.03898
2.94308
2.32133
2.25999
5.10661
3.88913
2.77692
5.00423
4.95171
2.28759
1.94911
1.65294
1.426
2.27826
1.95656
1.65675
2.79606
4.31975
1.8482
2.63794
2.77996
4.35569
1.85456
3.72447
4.37222
3.91869
3.39383
6.01841
5.24545
2.13466
1.75632
2.51772
2.33854
1.44249
1.99586
1.67817
5.10295
2.00121
3.15868
2.87905
2.69728
4.5288
1.88682
4.36681
4.52592
4.49865
3.58804
4.53416
3.59815
5.08264
1.94575
4.42745
4.13062
2.64585
4.54036
1.84075
3.86792
5.00416
4.64092
3.63657
1.6202
2.31033
2.83396
4.53278
1.62123
2.30859
2.83422
2.40576
2.92447
1.66327
1.62976
4.58263
2.32864
2.85133
3.71917
3.81363
2.33702
3.71897
3.81471
5.88928
5.89383
4.87442
4.72964
3.79542
3.88493
2.34208
3.72752
3.82621
6.05638
5.92328
1.98996
3.19021
2.32974
3.92905
1.9909
3.19087
2.32891
3.24458
2.35522
2.00945
1.99311
3.94229
3.20005
2.33371
2.97157
2.17984
2.82061
1.73157
1.41297
1.81432
1.39234
3.59668
3.5966
3.59989
3.30326
3.46148
3.28506
3.46469
4.85878
5.64296
5.75857
4.40417
4.20447
4.3454
4.23817
0.850701
0.846976
0.669743
0.880618
0.837132
0.840672
0.667107
0.926282
0.674074
0.733082
0.899282
0.910395
0.663185
0.719633
0.885165
0.704288
0.718181
0.884447
0.871685
0.692922
0.707564
0.879514
0.684924
0.696686
0.860837
0.866319
0.676054
0.686798
0.896799
0.677947
0.691369
0.868672
0.881005
0.667745
0.680932
1.06644
0.693996
0.779902
0.910377
1.01628
0.682747
0.747012
2.85653
1.82685
2.69981
1.79725