/*--------------------------------*- C++ -*----------------------------------*\
  =========                 |
  \\      /  F ield         | OpenFOAM: The Open Source CFD Toolbox
   \\    /   O peration     | Website:  https://openfoam.org
    \\  /    A nd           | Version:  10
     \\/     M anipulation  |
\*---------------------------------------------------------------------------*/
FoamFile
{
    format      ascii;
    class       volScalarField;
    location    "2000";
    object      p;
}
// * * * * * * * * * * * * * * * * * * * * * * * * * * * * * * * * * * * * * //

dimensions      [0 2 -2 0 0 0 0];

internalField   nonuniform List<scalar> 
8792
(
0.193588
0.730719
0.806565
0.391573
0.320914
1.05185
0.270803
0.467096
0.503744
0.42831
0.351366
0.504481
-0.126404
-0.456696
0.29531
0.442645
0.494954
0.472683
0.48058
0.531141
0.573382
-0.024883
0.242106
0.367978
0.431
0.431676
0.436756
0.451093
0.481588
0.163558
0.174994
0.635323
0.196497
0.285779
0.344475
0.36381
0.374406
0.372896
0.400565
0.478503
0.36905
0.356407
0.382956
0.379913
0.166273
0.158705
0.134773
0.169614
0.132132
0.204626
0.132428
0.095611
0.082912
0.117288
0.138868
0.135768
0.036522
0.0193248
0.109049
0.0836586
0.0720485
0.0811383
0.0964073
0.115115
0.110674
-0.0330621
0.114818
0.101643
0.0918903
0.0948833
0.10655
0.135413
0.149506
0.191049
0.173459
0.049316
0.118056
0.11533
0.109767
0.109572
0.118386
0.142286
0.146408
0.109377
0.0933376
0.00371832
0.0194626
-0.0275249
0.0833727
0.0531184
0.0415676
0.0500871
0.0302527
0.00757566
0.0664886
0.0489524
0.0413677
0.0447591
0.0360518
0.0297192
-0.0144077
-0.0767606
0.0401417
0.0154437
0.00458207
0.00535493
-0.00145792
-0.016982
-0.00608306
-0.0202008
0.0397473
0.0171752
0.00277838
0.000641206
-0.00528076
-0.0184854
-0.0127344
-0.0344662
-0.00526319
-0.0708557
0.0445862
0.0260736
0.0118002
0.00682622
0.00119839
-0.0101544
-0.0189156
-0.0386368
-0.0280129
-0.050773
-0.0610998
-0.0824967
0.0610693
0.027697
0.0167848
0.0171708
-0.002232
-0.0211111
0.0501351
0.0325405
0.0254891
0.0244869
0.0145158
-0.00260887
-0.0315823
-0.053772
0.0472634
0.0367247
0.0333866
0.030014
0.0200615
0.000140563
-0.0117268
-0.0271062
0.0470568
0.0393322
0.0347642
0.0307571
0.0212541
0.00188038
-0.00718165
-0.0244038
-0.0330155
-0.0914123
0.0470918
0.0401641
0.0345063
0.0302514
0.0217799
0.00572383
-0.00674428
-0.024282
-0.0390242
-0.0663513
-0.0420972
-0.0570569
0.0619645
0.0337232
0.0245262
0.0207746
0.00289681
-0.00308153
0.0530638
0.0390958
0.032989
0.028608
0.021161
0.0142047
0.00734266
0.013309
0.0543156
0.046189
0.0427088
0.0385895
0.0333351
0.0260499
0.0225951
0.0246314
0.0560695
0.0518239
0.0482796
0.0439071
0.0382891
0.0289036
0.0246648
0.00847857
-0.00811515
-0.0756914
0.0563013
0.053467
0.0504242
0.0467935
0.041232
0.0318346
0.0227407
0.00303481
-0.0218247
-0.053765
-0.0271563
-0.0420973
0.067282
0.0418632
0.033328
0.0280892
0.0141988
0.0163047
0.0567854
0.044293
0.0380222
0.0330757
0.0282495
0.0279551
0.0376296
0.0550798
0.0543848
0.0456821
0.041299
0.0372527
0.0547948
0.0497477
0.0447091
0.0402973
0.0552321
0.0514836
0.0471297
0.0432264
0.0722857
0.0478437
0.0865305
0.0801414
0.0619943
0.0704263
0.0488131
0.0744478
0.142121
0.122155
0.144483
0.0418957
0.119527
0.0581953
0.0573079
0.110604
0.049419
0.0746721
0.0593207
0.103375
0.040774
-0.0852991
-0.123904
-0.0628183
0.03087
0.0525362
-0.0232522
-0.125225
-0.152709
-0.16936
-0.938332
-0.579342
-0.125856
-0.283697
-0.331498
-0.300799
-0.283098
-0.27521
-0.245714
-1.15926
-0.0941265
-0.229794
-0.287634
-0.280329
-0.270598
-0.253798
-0.263103
-0.744408
-0.252368
-0.0857621
-0.0625366
-0.162001
-0.218307
-0.231984
-0.236432
-0.22065
-0.229082
-0.305585
-0.196942
-0.155574
-0.30867
-0.345
0.313764
0.137368
0.28425
0.367593
0.49298
1.02916
-0.439605
0.194567
1.05721
1.20799
0.763584
0.975287
0.156326
1.14693
2.00982
0.509765
0.0665305
0.485708
1.48449
0.611925
1.17318
1.05838
0.00915205
0.368604
0.380211
0.035819
0.236598
0.14961
0.264796
0.120716
0.21824
1.07246
0.171699
0.202919
1.00968
1.0457
0.241212
0.266453
1.14158
0.338364
0.138949
0.214105
0.307248
0.310201
0.182338
0.311989
0.412994
0.0815319
0.32354
0.221341
0.239179
0.448477
0.413641
0.763761
1.42727
0.553956
0.902057
0.823102
0.837842
0.662857
0.925069
-0.328126
-0.809043
1.77774
0.269624
0.111451
0.281293
1.46775
1.67937
1.08175
1.37493
-1.03499
-0.267755
0.323115
-0.990997
0.111859
0.38686
0.491369
0.98072
0.390046
0.409402
0.136513
0.435316
0.103474
0.465685
0.333443
0.400114
1.08648
0.12618
0.645726
0.226926
0.548649
0.414553
0.0815664
-0.183933
-0.621182
-0.544087
-0.123838
0.864529
-0.446952
-0.529526
1.5671
3.69928
-0.387134
2.79351
-1.3861
3.30555
1.43226
-0.0245255
-0.930244
-0.766558
1.22296
0.922365
0.748812
0.478851
-0.252232
0.647741
0.160339
-0.160498
-0.138319
-0.174275
-0.310377
-0.0324578
0.7091
1.27241
0.113134
1.50887
0.836747
0.974435
0.624935
0.0955479
1.66123
-0.358153
1.11404
0.676052
-0.32972
-0.395068
-0.390481
1.23672
1.18279
1.26108
1.98618
0.0444063
1.02795
1.32318
0.460244
-0.322673
0.572453
-0.0758669
0.634415
0.0936644
0.0957892
0.384025
0.355535
0.667971
0.822112
0.181266
0.294418
1.08797
1.39622
1.91552
0.520324
0.726561
0.34507
0.532
0.184486
0.19593
0.375936
0.441291
0.718541
0.586366
0.586464
0.234343
0.239553
0.499102
0.49578
0.296625
0.61866
0.578216
0.16534
0.19782
0.481406
0.435001
0.311363
0.21195
0.140035
0.163836
0.230248
0.349356
0.418638
0.642158
1.51836
0.541374
0.402546
0.496259
0.530406
0.861155
-0.0517226
-3.12969
0.33998
0.25029
0.338709
0.972026
0.826666
0.726682
0.662581
0.412742
0.315856
0.294049
0.335912
0.361218
0.359442
0.34605
0.0689237
0.150655
-0.449239
-2.04188
0.137717
0.0899695
-1.90877
-1.57494
0.0732934
-0.0481686
-1.84514
0.303708
-0.0775686
0.414375
0.260094
0.261348
-0.0513033
-0.182813
-0.140747
0.326314
-0.35707
-0.143233
-0.159907
-1.0785
-0.749997
-0.946185
0.998839
2.99924
0.577186
0.867545
-0.13447
-0.208124
-0.126817
0.381157
0.202389
-0.203728
-0.101429
0.79527
0.443723
-1.21352
0.789506
0.252074
-1.05972
0.237964
-0.155269
-0.524311
0.0341975
0.237774
-2.22325
0.917503
0.737013
-0.429185
-1.73853
-1.41724
0.874257
-0.737697
0.0683625
0.0895164
0.462534
0.230679
-0.219651
-0.439672
0.727673
-0.408704
0.316806
0.565344
0.493769
-0.192896
-0.0684158
-0.379533
0.43713
0.378227
0.775874
0.0621291
0.366995
0.12197
0.44353
0.239071
0.506306
-0.582779
-0.517425
-0.126199
0.547492
0.991211
0.35473
0.657494
0.728731
0.515374
0.378296
0.823685
1.264
0.358713
1.12518
1.1883
0.901921
0.994904
0.949157
0.835543
0.797532
0.837291
0.905861
1.41115
0.926922
0.761878
0.977693
0.881604
0.309729
1.15067
1.11953
0.223444
1.0311
0.408489
0.39736
1.07114
0.877494
0.805376
0.609361
0.976669
0.297408
0.646993
1.55391
0.441417
0.87215
0.486148
0.59875
0.897158
-4.073
-0.328638
-1.69346
-0.650667
-2.89389
-2.503
-0.425088
-2.25521
0.215643
2.18138
0.390853
-0.900147
-1.27017
0.912228
-0.622538
0.46129
0.648835
-1.42732
-1.31056
0.419942
-0.462283
-1.73299
0.616725
-0.128437
-1.54415
-0.452149
0.265205
0.566282
0.366907
0.895514
0.154084
0.0674855
0.344652
0.129704
0.680607
0.898194
0.52926
0.682385
0.162033
0.0171916
0.962332
-0.270784
0.81334
-0.295529
0.00603675
0.406
-0.206558
-0.267671
0.0285733
-0.156144
-0.00418416
-0.137248
-0.0909461
0.701967
1.61291
0.868815
-0.0683101
-0.633841
-0.164301
-0.231352
0.890289
2.38826
0.523202
2.31133
3.25877
-0.0892846
2.90981
2.63334
3.42427
0.140241
0.467786
0.341137
0.293491
0.191735
2.51142
2.86104
1.17556
0.721862
1.84312
0.636592
2.91286
3.19355
3.04285
-1.18935
-0.43017
2.32851
0.797286
1.24699
0.137414
0.407033
0.0585291
0.154391
0.767563
-0.548962
0.688671
0.371671
-0.534848
-0.66942
-0.63322
0.474595
-1.31616
0.217216
-0.131294
0.102657
-0.606834
-0.551243
-0.448835
-0.474657
0.341656
-1.66206
-1.97987
0.789544
0.633682
0.984029
0.690794
1.01722
1.18196
0.353168
0.848648
1.2467
0.412779
0.543426
0.983405
-0.140868
1.05766
0.0776528
-0.749478
1.01444
0.968916
-1.86672
-1.97974
-2.47587
-1.3505
1.00466
-0.661861
1.46354
-0.164953
0.0194205
0.374356
1.06227
-0.152568
0.347034
0.730838
0.90269
1.29399
0.617418
0.0692667
0.384932
-0.369651
-0.0315252
-0.0277076
0.945136
0.38487
0.864949
0.686016
1.06462
1.03826
0.897357
0.399283
0.910415
0.38429
0.726654
1.25361
0.990051
0.869243
0.436433
0.992773
0.460379
0.409598
1.1051
1.06159
0.943106
0.302374
0.978714
0.265294
0.704593
0.425896
0.107973
0.915697
0.9966
0.625844
0.211989
0.114801
0.0391633
0.0771467
-0.340965
-1.44299
-0.302178
-0.621082
0.0606241
0.0565785
0.0334237
-1.37726
-1.14946
-0.702486
-0.656189
-0.0524848
-0.0236697
-0.0718236
-1.25877
-0.0266636
-0.614392
-0.491469
-0.10928
-0.138029
-0.0686618
0.143359
0.324324
-0.342347
-0.0258246
0.759548
2.10063
0.889094
0.969999
0.922547
0.795551
1.92379
0.748983
2.01039
0.997382
0.957934
0.922786
0.782927
1.98395
0.609111
1.92564
0.826006
0.928468
0.797178
0.752411
1.67165
1.08279
2.25709
1.22768
1.12918
1.16073
1.03783
2.39395
0.0145827
0.490565
0.156563
0.195922
0.74722
0.283068
0.00909854
-0.0560932
0.272738
-0.50514
-0.496781
0.347384
-0.494385
-0.470508
0.50668
1.15442
1.17787
0.939801
0.360964
0.928951
0.266039
0.624306
0.957969
0.950721
0.842976
0.430179
0.871435
0.368088
0.490486
1.03814
0.909845
0.801348
0.327673
0.895365
0.387891
0.34217
0.0444984
0.906797
0.926465
0.628474
0.778979
0.161582
-1.02772
-0.157426
-0.163085
-1.7865
-0.0211903
0.0280712
-1.82527
-0.0484763
-0.0484333
-1.71567
-0.0473544
-0.02708
-1.24987
-0.205982
-0.170863
-0.576784
-1.11436
-0.566147
0.458211
-1.12413
-1.02552
0.433647
-0.961121
0.294209
0.614498
0.870209
0.668823
0.933769
0.796753
0.569615
1.68146
0.708577
0.919902
0.841291
1.8332
0.887207
0.663286
1.86296
0.557881
0.796494
0.791496
1.71671
0.75192
0.610087
1.66533
0.786697
1.12269
0.747021
1.78439
0.950604
0.566225
2.06427
0.154886
0.588204
0.546386
1.46098
0.365768
0.323322
1.1607
0.26854
-0.047594
-0.0467002
0.351061
-0.0612135
-0.404557
0.357741
-0.315415
-0.395009
0.177956
0.151788
0.0904345
0.0499292
0.375198
0.111329
0.33519
0.146717
0.120701
0.0866482
0.0886235
0.0575883
0.0686048
0.0489559
0.149526
0.140165
0.104027
0.0853854
0.0423605
0.0667366
0.0270746
0.103278
0.0647654
0.0706195
0.0529136
0.0695488
0.0592553
0.0645955
0.0329595
0.0559186
0.0444394
0.0639576
0.0263725
0.0645788
0.0305046
0.0613573
0.0792284
0.0556335
0.0710844
0.0444522
0.0482233
0.162514
0.168051
0.0519499
0.0412149
0.138714
0.179235
0.0367648
0.0461231
0.186013
0.0530679
0.155944
0.0752425
0.0683546
0.0603838
0.0496601
0.0391978
0.0333489
0.164379
0.0598559
0.0831332
0.0464382
0.0511761
0.0301803
0.0413253
0.146211
0.0933409
0.110676
0.0561264
0.0616478
0.0525431
0.0513176
0.205699
0.120142
0.12634
0.051657
0.0423973
0.046596
0.0436283
0.157575
0.0962328
-0.0876001
0.0150874
-0.063404
0.0207412
-0.0877835
0.158564
0.0811469
-0.0410313
-0.106956
0.0741805
-0.113982
-0.219627
-0.129466
-0.245589
0.201674
0.120659
0.0383831
-0.160351
-0.0248553
-0.102415
-0.0707572
0.143431
-0.0123036
0.0207255
0.081433
-0.00496152
0.00126253
-0.0652904
-0.0134015
-0.0608898
-0.0120764
0.0252633
-0.0571796
-0.0545361
-0.0701471
0.041919
0.03066
0.0231498
0.00830254
0.029629
0.0378759
0.0093334
0.0101552
0.0437526
0.0116212
0.0428353
0.0508813
0.0460037
0.0288453
0.0162256
0.0333706
0.0279712
0.0460402
0.0418809
0.0427697
0.0164238
0.0145791
0.0241095
0.0240549
0.0429959
0.0423069
0.0377096
0.0148854
0.016765
0.0222514
0.0179339
0.0296559
0.0322775
0.0255394
0.00613635
-0.00322994
0.0117899
0.00384435
-0.0488894
0.0210402
-0.0152031
-0.0216375
-0.0553544
-0.00537181
-0.0251873
-0.00198767
-0.0546321
-0.0302148
-0.0578117
-0.0781184
-0.0658978
-0.0475458
-0.0659892
-0.0450039
-0.0356096
-0.0319839
-0.0188613
-0.0148659
-0.0437816
-0.0200179
-0.0296658
-0.0208007
-0.0496556
-0.0805786
-0.0303524
-0.0689731
-0.0360781
-0.102276
-0.0489671
-0.0875054
-0.0587653
-0.0692691
-0.0877416
-0.0743856
-0.0961415
0.0224305
0.0088643
0.0265491
0.0133167
0.0102452
0.0114565
0.0153219
0.0129897
0.0118599
0.0118838
0.0317476
0.0495526
0.0384215
0.0619312
0.0354972
0.0501562
0.0403055
0.0163225
0.0277271
0.0228442
0.0308854
0.0191348
0.0312122
0.0266239
0.0168897
0.0197124
0.0196734
0.0200598
0.0156498
0.0240865
0.0235015
0.00909192
0.0174826
0.0120356
0.0138852
0.0158435
0.0202367
0.0152745
-0.00589099
0.00556468
-0.00100318
0.00708424
0.00220282
0.00968755
0.00519096
-0.0485563
-0.0122943
-0.0273044
-0.00969746
-0.0202192
-0.00344172
-0.0107254
-0.0282398
-0.0502316
-0.0105662
-0.00921002
-0.0561765
-0.0101064
-0.047977
-0.00852943
-0.0137137
-0.045817
-0.0341512
-0.0349678
-8.82845e-05
-0.00657887
-0.0130097
-0.0142683
-0.0449986
-0.0297222
-0.107413
-0.0494073
-0.0882613
-0.0192884
-0.093639
-0.0407379
-0.0811951
-0.0737094
-0.0848437
-0.0767444
-0.0654917
-0.0778868
0.0652333
0.0327517
0.0702411
0.0399224
0.0292013
0.0169698
0.0362539
0.023625
0.0191293
0.0181468
0.0255348
0.0223151
0.016673
0.020093
0.0377974
0.0529922
0.0442836
0.067214
0.0439535
0.0552044
0.046896
0.0235645
0.0360502
0.0321759
0.0394765
0.0286138
0.0394572
0.0351861
0.0230298
0.0296964
0.0284048
0.0294638
0.0242478
0.0327922
0.0314977
0.0122947
0.0243536
0.020053
0.0215652
0.0249039
0.0274238
0.0240134
0.00557385
0.0157827
0.0140972
0.0182208
0.0178156
0.0210185
0.021193
-0.00788237
0.00919508
0.00918318
0.0118794
0.0155919
0.0186945
0.0231912
0.00602713
0.00906998
0.0288108
0.0443042
0.0107108
0.0441965
0.0189553
0.0447229
0.0414075
-0.00302493
0.00567105
0.00594814
0.0450252
0.0270544
0.0280632
0.0224229
-0.0177854
-0.00405488
-0.0933127
-0.0286366
-0.0714711
0.00457332
-0.0762198
-0.020146
-0.0642231
-0.056316
-0.0647494
0.0709476
0.041814
0.0754673
0.0463656
0.038634
0.0269512
0.0428822
0.0312605
0.0287769
0.0268329
0.0329674
0.0300441
0.0244872
0.027791
0.0457251
0.057676
0.0499808
0.0722076
0.050059
0.0595416
0.0520362
0.0327362
0.0428127
0.0388024
0.0456045
0.03594
0.045063
0.0407681
0.0311537
0.0366723
0.0349613
0.0363054
0.0314023
0.0389105
0.0373857
0.0215741
0.0308324
0.0277887
0.0286554
0.0332822
0.0336001
0.0312548
0.0199553
0.0257
0.0269871
0.022076
0.0260704
0.0322343
0.038768
0.052405
0.0528846
0.0531106
0.0761526
0.0478977
0.0448653
0.0342589
0.0515998
0.0621832
0.0551539
0.0398473
0.0488493
0.04479
0.0683481
0.076649
0.0792031
0.0911175
0.0945829
0.0893021
0.107577
0.109098
0.0831787
0.0969245
0.0822835
0.0533207
0.0611317
0.0358929
0.0681029
0.0735415
0.0644906
0.0179212
0.079249
0.0506997
0.0633526
0.0592575
0.0450248
-0.0107502
-0.290099
0.0148286
-0.0388548
0.0667483
0.0753137
-0.221464
-0.442661
0.0811116
-0.484247
0.0321536
-0.454023
-0.00108423
0.0684061
0.0420655
0.0390659
0.102667
-0.17663
0.128695
0.078046
0.0503541
-0.04854
-0.0104995
0.0353591
0.00752983
-0.040894
-0.0133144
0.00898635
-0.0637938
0.0933684
-0.184023
-0.186978
-0.163035
0.101472
0.0907374
-0.153832
0.0122673
-0.246168
-0.236074
-0.215451
0.0364401
0.0114851
-0.209533
-0.0885327
-0.00662345
0.00270028
-0.113199
-0.0892178
-0.0941572
-0.132096
-0.156045
-0.113869
-0.129561
-0.0602454
-0.127704
-0.0215928
-0.186341
-0.268742
-0.105416
-0.0914845
-0.202858
-0.149863
-0.285655
-0.189216
-2.81659
-0.0164046
-0.22761
-2.00007
-2.76301
-0.104455
-0.834445
-2.38782
-0.306583
-3.42712
-1.45946
-0.227468
-0.625064
-0.24258
-0.106006
-0.104894
-0.210816
-0.133867
-0.207421
-0.229692
0.629201
0.474807
0.381344
0.300765
0.580593
0.519224
0.407269
0.673639
1.58451
0.226627
0.514028
0.537993
2.08066
0.401448
2.23307
0.873551
3.16966
0.536814
1.38706
0.786978
2.07677
1.59685
0.93701
1.04702
2.23902
1.87834
0.733459
1.86707
2.19797
1.16241
1.10569
2.15858
1.86
0.882222
2.50208
2.97552
2.49518
1.49873
1.4527
3.44637
2.20934
1.65943
2.51103
0.798759
2.40025
1.02563
1.64089
2.0239
0.818715
0.685965
2.08202
1.49782
0.983453
0.450518
1.10679
0.844428
0.393599
0.262129
0.981739
0.55851
0.114445
0.465358
0.244218
0.548628
0.140258
0.17363
0.293915
0.465722
0.113966
0.192191
-0.0799108
0.0331795
-0.0728711
0.364306
-0.15863
0.429706
0.187113
0.370683
0.472328
0.257578
0.542285
0.487538
0.293387
0.604005
0.289099
0.207262
0.356072
0.394266
0.245443
0.479376
0.3196
0.16151
0.289927
0.213989
0.438484
0.548371
0.698599
0.223322
0.268092
0.615192
0.577945
0.271924
0.457149
0.260202
0.485559
0.472364
0.201184
0.438584
0.235074
0.5517
0.0752679
0.133658
0.539131
0.438734
0.485372
0.153941
-0.444181
-0.158581
-0.148092
-2.21286
-0.319968
-0.573664
-1.76195
-3.28153
-0.289615
-2.01958
-0.253456
-0.596079
-0.903159
-0.483988
-1.35402
-1.40116
-2.57107
-0.326312
-0.637712
-2.28162
-0.513263
-3.0726
-1.60348
-3.24637
-3.82962
-0.207267
0.00181565
-3.00538
-1.22948
-0.366338
-0.216381
-1.51737
-0.522525
-1.9539
-1.06963
-0.249497
-0.187204
-0.334406
-0.422909
-0.263196
-0.17464
-0.284816
-0.279924
-0.188653
-0.0923877
-0.201884
-0.196515
-0.0770045
0.487567
0.181415
0.413638
0.477927
0.241243
0.523539
0.224856
0.510459
0.242881
0.553835
0.571241
0.265114
0.543307
0.27618
0.488386
0.277047
0.569869
0.559076
0.261266
0.52877
0.291175
0.482278
0.200966
0.43621
0.511339
0.227765
0.566496
0.241866
0.406085
0.229835
0.475646
0.499852
0.229737
0.466526
0.254628
0.347226
0.158951
0.352474
0.429916
0.186665
0.419036
0.184469
0.710163
0.189912
0.26736
0.516283
0.585747
0.490791
0.207002
0.0735412
-0.0741692
-0.111476
0.139414
-0.198469
-0.145299
0.127215
-0.201965
-0.198678
0.113116
-0.215158
-0.194465
0.0362082
-0.27101
-0.238988
-0.00186167
0.0899374
-0.189729
-0.0815959
0.0447828
0.0569617
-0.0818825
-0.0246657
-0.0779407
-0.16328
-0.168637
-0.17373
-0.0761556
-0.101611
-0.162447
0.339893
0.334611
0.217834
-0.551474
-0.898227
-0.902865
-0.563602
-0.190976
-0.148835
0.0354517
-0.14553
0.0503668
-0.345944
-0.437628
-0.146715
-0.13227
-0.110722
-0.276766
-0.204685
-0.271275
-0.136735
0.33992
0.156267
-0.967814
-1.11106
-0.73472
0.1671
-0.776395
0.112716
-0.174584
-0.122276
-0.0954824
0.109336
0.106542
-0.143377
0.0808928
-0.202471
-0.182584
-0.156254
0.0603798
0.0814004
-0.176605
-0.0191691
-0.00897944
-0.209132
-0.216645
-0.0496659
-0.0182564
-0.127475
-0.0816084
-0.0860023
-0.0790927
-0.0664296
-0.167689
-0.116693
-0.0689369
0.290854
0.333011
-0.888559
-0.874445
-0.605157
0.175328
-0.667443
0.17896
0.0734998
0.102397
0.0520335
0.0651769
0.0706643
0.169868
0.130559
0.13905
0.0825089
0.109095
0.0887276
0.0733252
0.0631444
0.0719086
0.0814478
0.0716974
0.0553875
0.0613261
0.0649956
0.0582593
0.0345939
0.0508262
0.0294571
0.0404772
0.0439367
0.0663934
0.0553807
0.0638994
0.0454537
0.0590683
0.0593009
0.0480431
0.0378852
0.0446269
0.0490063
0.0483221
0.0333256
0.0389406
0.0447172
0.0420215
0.0635053
0.0421666
0.0387615
0.0267991
0.0391393
0.0631479
0.0434782
0.0418769
0.0283494
0.0415241
0.0395964
0.145363
0.130981
0.125462
0.0872707
0.0682712
0.0560642
0.0721495
0.151851
0.108014
0.120076
0.0584348
0.0708714
0.0814763
0.0508897
0.163448
0.143463
0.140236
0.0941285
0.106852
0.105657
0.0927239
0.16302
0.143356
0.166857
0.109496
0.0858239
0.0979821
0.0997071
0.251861
0.186285
0.211855
0.0718048
0.0817692
0.0807142
0.084045
0.103209
0.00645567
-0.0865768
0.0142996
-0.0804507
0.171886
0.109854
-0.105004
-0.171025
-0.059036
-0.0945096
0.222688
0.0265924
0.247558
-0.264222
-0.276717
-0.24461
-0.331303
0.169556
0.0520699
0.0658843
0.0586322
0.042745
-0.0203059
-0.0248924
-0.0154928
-0.00585574
0.0538147
0.0430725
0.0449714
0.035606
0.045393
0.047042
0.0345428
0.0329211
0.0462013
0.0419911
0.0298678
0.0466187
0.0326227
0.0307064
0.0340892
0.0463892
0.0521844
0.0322196
0.0477128
0.0328059
0.0330416
0.0366302
0.0332339
0.0390346
0.0227041
0.0410068
0.0245716
0.0358358
0.0120767
0.0184771
0.0173524
-0.00451618
0.0305235
0.00211505
0.00449171
-0.0727568
-0.0128131
-0.0756202
-0.0225425
-0.0260101
-0.018001
-0.00194026
-0.0244502
-0.0282398
-0.0219228
-0.00134575
-0.0336538
-0.0853606
-0.0677549
-0.0608837
-0.0624511
-0.0464735
-0.051768
-0.00656915
-0.0131472
-0.0773163
-0.0723405
-0.0548778
-0.0767762
-0.0665855
-0.0820878
-0.0623143
0.0287464
0.0270759
0.0202263
0.0224804
0.0223665
0.0210728
0.0285752
0.0167008
0.019073
0.017336
0.0153078
0.0201856
0.0165992
0.0156019
0.0137857
0.0157292
0.0199058
0.0115455
0.0176887
0.0130419
0.0123566
0.0109234
-0.000522407
0.000549125
0.00323414
0.00261997
0.00496261
0.00962212
-0.0154542
-0.0174959
-0.0171393
-0.019942
-0.00874334
-0.0193893
-0.0172097
-0.0666537
-0.037086
-0.073723
-0.0330445
-0.0301458
-0.0271866
-0.0100038
-0.0168941
-0.00775062
-0.0177212
0.00411936
-0.0295506
-0.0335276
-0.0555234
-0.0454223
-0.0288671
-0.0230499
-0.0527718
-0.0221929
-0.0159934
-0.0876237
-0.0924185
-0.0837367
-0.0846963
-0.0902485
-0.0892323
-0.074584
0.0311247
0.0300678
0.0366977
0.0354591
0.031543
0.0309843
0.0380833
0.0274093
0.0262112
0.0271565
0.0251549
0.0293732
0.0260052
0.0268561
0.0210126
0.0196578
0.0247964
0.0178445
0.0227888
0.0195036
0.0195164
0.0210532
0.00578829
0.00511445
0.0125781
0.00833274
0.0149005
0.0189502
0.0076585
0.00194364
-0.00020986
0.00223917
0.00878615
0.00445332
0.00456765
-0.0123633
0.00199656
-0.0251842
0.0126346
0.0210907
0.00397243
0.0286273
0.0258275
0.04248
0.0195683
0.0463844
0.0368887
0.0360367
0.00587129
0.0243727
0.0361505
0.0481621
0.0126262
0.0124115
0.0206403
-0.0690383
-0.0765803
-0.068748
-0.067172
-0.0740992
-0.0712173
-0.0569426
0.0391746
0.0391784
0.0439645
0.0429072
0.0401122
0.0394634
0.0446792
0.0351752
0.0349539
0.0355077
0.0334725
0.0376196
0.03419
0.0348628
0.0283973
0.0276811
0.0317073
0.0253381
0.0303411
0.0273552
0.0263298
0.0315478
0.0175306
0.0152817
0.0232956
0.0192103
0.0259095
0.0287083
0.0245751
0.0217883
0.0184704
0.0194794
0.028142
0.0215854
0.0214014
0.020553
0.0392134
0.0164515
0.0431329
0.0553727
0.0303182
0.0581646
0.0648474
0.0790299
0.0450062
0.056078
0.0755962
0.0798765
0.0434693
0.0454633
0.0458891
0.0500958
0.0489279
0.0467313
0.0459672
0.0510223
0.089658
0.101009
0.0850727
0.10981
0.0439824
0.0606537
0.0619694
0.0538086
0.0637146
0.0445483
0.0530309
0.0199201
0.0851326
0.0557661
0.0555015
0.0488754
0.0802525
0.0876735
0.0377551
-0.109622
0.0567417
0.0096768
0.049489
0.110337
0.0512416
0.0326557
0.0912186
0.0718921
0.0159992
0.0861706
0.083593
0.151648
0.0789354
0.0670667
0.161261
0.0738902
0.0711319
0.0568103
0.0428343
0.0468624
0.047118
0.0423277
0.0481649
0.165948
0.0595788
0.0776592
0.179746
0.0942002
0.0907118
0.0371216
0.0451632
0.0492245
0.0559055
0.0494426
0.0570823
0.17603
0.103821
0.103529
0.181303
0.111119
0.0641644
0.0512865
0.0625485
0.0493905
0.0640204
0.159855
0.123498
0.135176
0.0620342
0.0784091
0.0793664
0.0568568
0.0678594
0.0540501
0.0593624
0.049579
0.050488
0.0558705
0.0450277
0.0530199
0.0568959
0.0515314
0.043062
0.0591915
0.0484074
0.0471716
0.168161
0.142343
0.141371
0.0779983
0.0969275
0.0962129
0.0829513
0.0505391
0.0509575
0.0513853
0.040353
0.0579814
0.0444004
0.0441711
0.0617221
0.0652024
0.0561146
0.0479234
0.0674143
0.0651824
0.0503291
0.154304
0.152972
0.133244
0.0926938
0.099389
0.101847
0.112586
0.0714948
0.0721774
0.0535672
0.0532439
0.0700356
0.0728034
0.0522219
0.067558
0.0721588
0.045839
0.0740645
0.0635498
0.0814819
0.0492974
0.189431
0.179485
0.168744
0.104976
0.11193
0.100245
0.111693
0.0722544
0.0613475
0.0533515
0.0621284
0.0642267
0.0685896
0.0627479
0.0627614
0.0618989
0.0404701
0.0483869
0.0554062
0.0700212
0.048353
0.197191
0.00424755
0.0714274
-0.0740102
-0.0641722
-0.00296491
-0.131036
0.0433285
0.0318091
0.0209413
0.0210177
0.0324685
0.0431401
0.0249836
-0.052885
-0.0843131
-0.027929
-0.0773987
-0.0310659
-0.0978957
-0.0452421
0.18354
-0.0906387
0.108829
0.132634
0.0323332
-0.104445
-0.0657139
-0.031196
-0.109659
0.202669
0.0814465
0.0978414
-0.139671
-0.229145
-0.152344
-0.182436
-0.0827765
-0.00583437
0.0138959
-0.0831891
-0.0990753
-0.0805353
-0.0740055
-0.0363936
-0.0182584
-0.0725468
-0.000127684
-0.0796537
-0.072554
-0.111305
-0.158065
-0.087568
-0.094117
-0.123937
-0.128002
-0.0878141
-0.212031
-0.1659
0.0433338
0.0566105
-0.111448
-0.104028
-0.178373
-0.181331
-0.126068
-0.166206
-0.172792
-0.230533
-0.13711
-0.134723
-0.0358372
-0.0958529
-0.0136186
0.0647969
0.168885
0.157275
-0.0654328
0.0217769
-0.0702906
0.011745
-0.0724979
-0.0120966
-0.0341183
-0.0334399
-0.0622547
-0.00976198
-0.0534268
0.147777
0.102215
0.0488864
0.0506335
0.00175721
0.0408915
-0.0306433
-0.00351472
0.0159291
0.0179606
-0.00307804
-0.0617806
0.019899
-0.0354848
-0.0789987
-0.0659342
0.0248262
0.0244978
0.046395
-0.0057696
-0.035076
-0.0205595
-0.0212486
-0.0353425
-0.0583673
-0.0635775
-0.0538972
-0.0504965
-0.0489471
-0.0503433
0.00834453
0.0487281
-0.0437812
-0.0660227
-0.0515187
-0.00718939
-0.0491756
-0.0512161
-0.0623016
-0.0392583
-0.0532673
-0.0315586
-0.0593044
-0.0935383
-0.0778369
-0.0515305
-0.0806075
-0.0408981
-0.0948287
0.0319547
0.0340195
0.023762
0.0323362
0.0186068
0.0211369
0.0263796
0.0156079
0.0190715
0.0127362
0.0119818
0.0160484
0.0364016
0.0187298
0.0236954
0.0401417
0.023265
0.026031
0.0133155
0.013004
0.0178754
0.0171977
0.0135096
0.0196443
0.0426968
0.027752
0.0289621
0.0388785
0.0253634
0.0200553
0.012972
0.020277
0.00818574
0.014942
0.0360366
0.0447625
0.044135
0.0304676
0.0478968
0.0328013
0.0321551
0.0351325
0.0294234
0.0358143
0.0290308
0.0219908
0.0288966
0.0205858
0.0286343
0.0236584
0.0190976
0.0160322
0.026438
0.0246245
0.0202023
0.0342918
0.0498662
0.0489028
0.0298111
0.0495266
0.0344872
0.0310017
0.0270356
0.0235022
0.0181771
0.0157001
0.0264863
0.0236252
0.0171062
0.0275061
0.0249159
0.0184528
0.0141794
0.0277423
0.0275266
0.0169738
0.0296471
0.0357633
0.0517993
0.0338479
0.0412148
0.0238823
0.0473367
0.0262759
0.0263521
0.0157436
0.0149841
0.0245429
0.0287377
0.0162108
0.0195791
0.0181613
0.00727006
0.0249396
0.0135994
0.0244298
0.0118577
0.0224727
0.0229064
0.037129
0.0159379
0.0288276
0.0132552
0.0235135
0.0146372
0.00632397
0.00713771
0.0146125
0.00819909
0.0127741
0.0154331
0.00294807
0.00331756
-0.00401435
0.00294306
-0.00202919
0.0100729
0.00214987
-0.0231122
-0.018391
-0.0535191
-0.0500785
-0.0167521
-0.0250618
-0.0535684
0.00270495
-0.0148974
-0.0198774
-0.0166021
-0.00761573
-0.0079559
-0.0134506
-0.0232362
-0.0520201
-0.035858
-0.0592674
-0.0274679
-0.0553685
-0.034408
-0.0591973
-0.06323
-0.0534911
-0.00649475
-0.0324231
-0.00728633
-0.0560146
-0.0138261
-0.0335759
-0.0550194
-0.0638433
-0.0352221
-0.0479586
-0.059245
-0.0569697
-0.0308955
-0.0759158
-0.0400298
-0.0322436
-0.0793547
-0.0608038
-0.0641147
-0.0590318
-0.0166136
-0.0329401
-0.0539046
-0.0233407
-0.0428162
-0.0643581
-0.0575628
-0.0528056
-0.0621943
-0.0462315
-0.0592208
-0.0365459
-0.0623004
-0.0658497
-0.06371
0.0194656
-0.0636876
-0.0779811
-0.0197253
-0.0334862
-0.0595674
-0.0426666
-0.0648735
-0.0469624
-0.0507657
-0.0411441
-0.0853167
-0.0289898
-0.0738458
0.00868367
-0.0157569
-0.0435688
-0.0283171
-0.0344277
-0.0292787
-0.0195708
-0.0307082
-0.0342089
-0.0478933
-0.0304999
-0.0408121
-0.053677
-0.0403331
-0.0288885
-0.00908286
-0.0799161
-0.0353819
-0.0196682
-0.0907365
-0.0926905
-0.100065
-0.0241902
-0.0210558
-0.0410714
-0.0328641
-0.104477
-0.0269992
-0.100277
-0.113075
-0.110314
-0.069376
-0.0755672
-0.072249
-0.0882035
-0.0646446
-0.0802432
-0.0796087
-0.0845925
-0.100891
-0.0927071
-0.0977903
-0.0916581
-0.0987816
-0.084959
-0.103155
-0.0811851
-0.0606832
-0.0945543
-0.0903275
-0.0721
-0.0862468
-0.0878316
-0.0926852
-0.0768465
-0.0897689
-0.0784007
-0.0906077
-0.106452
-0.0977233
-0.078259
-0.0951755
-0.0754198
-0.109312
0.0224195
0.0161089
0.0160674
0.012641
0.0086256
0.0123995
0.0244323
0.0210593
0.0191295
0.0115813
0.0173125
0.0155802
0.0138801
0.0102929
0.0132944
0.0142064
0.00923505
0.0127999
0.0134551
0.0179909
0.0166493
0.0132838
0.0165119
0.0160943
0.0121654
0.00909156
0.0104367
0.00566751
0.00447059
0.0128989
0.0135802
0.0128872
0.00703939
0.00561244
0.0197958
0.0194313
0.017596
0.0146109
0.0217782
0.0177803
0.0154151
0.0292238
0.0258947
0.0258402
0.0332824
0.0248762
0.0316369
0.0257025
0.0252805
0.0183116
0.0223981
0.0210415
0.0215827
0.021078
0.0253373
0.0157986
0.0191964
0.0199659
0.0121496
0.0197147
0.0160889
0.0127081
0.0236763
0.0191603
0.0209795
0.0213893
0.0210763
0.0211609
0.0220312
0.02249
0.018555
0.0195634
0.0169293
0.0205727
0.0225351
0.0203274
0.00871763
0.00502484
0.0112243
0.0130707
0.0106938
0.00417508
0.0190591
0.0188718
0.017219
0.0152679
0.0154408
0.0160336
0.0209269
0.0167297
0.0115332
0.00916561
0.00702459
0.0214315
0.00527803
0.0104723
0.0118315
-0.000300192
-0.010445
-0.000553493
-0.00442333
-0.00798326
-0.00517244
-0.000170577
0.00316685
-0.00143552
0.00885542
0.0132376
0.000349124
0.000884225
0.0151426
-0.00564174
-0.0024029
0.000708099
0.00606184
-0.00755552
0.00177546
0.00550226
-0.0289154
-0.0298304
-0.0528241
-0.042807
-0.0261553
-0.0292087
-0.0464518
-0.00317891
-0.0144818
-0.00823792
-0.00727968
-0.0101131
-0.0115394
-0.00500732
-0.0136422
-0.0304479
-0.0121483
-0.0234568
-0.0168362
-0.0338747
-0.0121307
-0.0497429
-0.0573174
-0.0548257
-0.0298892
-0.0503896
-0.030041
-0.0594089
-0.0285441
-0.0492655
-0.0474348
-0.054302
-0.0403825
-0.0416203
-0.0542107
-0.0455286
-0.0371105
-0.0532235
-0.0114125
-0.0219633
-0.0407502
-0.0347734
-0.0215064
-0.0414934
-0.0164412
-0.00748172
-0.0260459
-0.0163261
-0.0348041
-0.0303917
-0.0314116
-0.0243144
-0.0140757
-0.0108815
-0.0292328
-0.0212842
-0.0182285
-0.0459528
-0.0263646
0.0220678
-0.0695721
-0.0833153
-0.0133332
0.00173764
-0.0230442
0.0158228
-0.0181917
-0.000902582
-0.0277016
0.00696916
-0.0504037
0.0225523
-0.0390291
0.0604893
-0.0223157
-0.0509249
-0.0408376
-0.0319426
-0.0401026
-0.0163548
-0.0314461
-0.0174227
-0.0254248
0.0161344
-0.00797178
-0.0232463
-0.0217325
0.00640777
-0.0299402
-0.105097
-0.0444729
-0.0265802
-0.102372
-0.115349
-0.111495
0.00305893
-0.00640927
-0.0334159
-0.0100937
-0.0920715
-0.0167332
-0.098338
-0.102783
-0.109411
-0.0827485
-0.0959017
-0.106483
-0.101438
-0.089457
-0.0906446
-0.096792
-0.0839567
-0.102694
-0.0821924
-0.0897334
-0.0903438
-0.102432
-0.0743142
-0.103592
-0.0952752
-0.0735148
-0.105218
-0.0931578
-0.0708394
-0.0839035
-0.0853548
-0.0806045
-0.066514
-0.0862128
-0.0780973
-0.0786425
-0.0971469
-0.0839987
-0.0603954
-0.0880841
-0.0639284
-0.0941722
0.0440911
0.0674404
0.0467198
0.0425615
0.0354505
0.0453521
0.0680621
0.049554