/*--------------------------------*- C++ -*----------------------------------*\
  =========                 |
  \\      /  F ield         | OpenFOAM: The Open Source CFD Toolbox
   \\    /   O peration     | Website:  https://openfoam.org
    \\  /    A nd           | Version:  10
     \\/     M anipulation  |
\*---------------------------------------------------------------------------*/
FoamFile
{
    format      ascii;
    class       surfaceScalarField;
    location    "2000";
    object      phi;
}
// * * * * * * * * * * * * * * * * * * * * * * * * * * * * * * * * * * * * * //

dimensions      [0 3 -1 0 0 0 0];

internalField   nonuniform List<scalar> 
25430
(
-0.200472
2.14293
110.861
0.294919
1.2624
-1.91703
1.85426
90.0259
-4.10732
1.27209
0.495465
0.485426
1.1909
-1.73728
1.7209
87.1151
-4.07297
1.15312
0.539859
0.557288
0.96408
-0.456829
0.456486
22.0755
-0.532316
-1.51348
-0.340383
0.329
17.2059
1.41687
0.714236
0.280882
-0.850491
15.9203
1.35619
22.5102
8.97011
-22.5833
465.245
38.0977
-8.9843
8.57441
-38.8397
433.76
36.6503
-8.21907
8.3428
-36.9057
407.818
0.065464
-8.52602
8.43437
-31.5594
396.654
-0.0263634
16.5752
15.974
-1.07365
-8.35922
8.23406
-24.7293
395.372
-0.70914
11.5934
11.8943
2.10198
-8.09568
7.78037
-24.336
374.191
2.92946
11.9203
9.98866
-22.2144
49.4324
355.167
-11.856
-0.845603
-9.49607
-3.5898
1.07392
0.162294
0.280143
1.132
-1.75192
2.03812
18.4147
82.0161
-1.82037
-7.51906
-6.70291
-1.39201
-0.0923566
0.041583
-0.101238
35.8783
-86.032
1905.7
22.131
39.4762
18.7769
31.5212
34.8489
-140.147
1848.35
38.673
37.9602
33.599
33.034
35.5291
-127.116
1769.88
36.9185
34.8076
32.0019
29.4696
35.0938
-113.608
1723.6
31.5209
27.3965
26.4034
28.0221
34.4085
-109.125
1684.36
25.2229
26.8082
28.7007
27.4419
36.661
-93.2926
1622.77
24.3598
-16.9775
28.5401
62.0297
-2.9031
-71.7714
1567.49
-2.98916
24.1707
28.7536
-49.4241
-45.1473
88.7517
75.9671
-16.706
32.8564
379.861
4.01022
-3.95987
3.08662
-2.23976
-17.2314
-7.61711
-8.14173
36.3787
-82.4774
1941.6
35.6808
-135.176
1916.55
36.5443
-123.451
1858.78
36.2834
-110.8
1805.84
36.4169
-106.37
1758.08
39.616
-91.0563
1708.04
-2.57002
-72.6633
1649.72
2.04966
31.2412
28.3876
-30.5859
4.861
29.4659
388.479
-3.42043
-2.08883
1.97888
89.8046
2.3091
-2.22914
0.687554
0.255994
18.3018
0.644195
36.7997
1970
36.1831
1962.97
37.2399
1921.86
37.273
1875.2
37.9259
1824.69
42.498
1772.06
60.8172
1713.25
13.921
1708.17
-17.2014
1.60793
51.1553
35.5836
13.7206
14.8158
14.9486
18.5782
13.2823
-20.051
409.02
1.55689
11.6667
-24.0531
379.821
1.42599
11.933
12.1158
-11.9468
49.9142
1719.37
20.4374
22.1869
23.208
24.7807
1648.78
23.9664
24.6673
26.3583
27.3681
-110.713
0.363425
2.07927
-0.262559
110.585
-92.931
-1.93409
1.54161
1.89827
-1.54658
92.9718
-89.5654
1.51152
-1.8295
1.82012
-1.6261
89.6894
-80.2374
1.40558
-1.70107
1.60761
-1.69769
80.623
-75.4763
-1.59361
1.45938
-0.995578
75.3632
1.24282
-68.0622
-1.3215
1.23801
-1.48183
68.233
1.39459
0.824181
-465.121
8.59978
-0.871299
465.029
3.36582
-434.68
-8.58615
8.43569
-3.30534
434.77
3.93416
-407.618
-8.24044
8.08091
-3.59271
407.436
2.64901
-396.999
-7.91876
7.89341
-2.17187
396.547
0.226953
-398.88
-7.91814
7.6952
-0.48529
399.362
2.51644
-376.614
-7.23823
6.82556
-1.82055
376.331
-357.814
7.35768
6.97849
-16.6466
356.719
7.70524
1.27762
1.54358
-7.12124
-85.463
5.52453
-2.69712
2.44161
-5.59182
85.7858
34.9515
-1.53938
1905.83
0.712327
2.5775
-0.971288
-1.3278
34.6874
-3.48628
1848.19
3.31351
3.58552
-1.4139
-1.57734
33.9603
-1.82504
1769.17
3.5358
2.87465
-1.52798
-1.62867
33.1085
0.386128
1724.89
2.0048
1.13066
-1.96987
-1.99027
31.5599
3.03492
1687.17
0.475665
0.426025
-2.41982
-2.7812
31.7351
-8.85524
1627.44
1.35797
9.10128
-3.19955
-3.2576
10.5315
-9.04143
1549.5
11.2802
7.04758
7.25419
16.0629
15.4286
-4.15963
-4.67919
-373.093
8.91522
-2.03109
366.948
2.99857
2.67078
2.16527
1.95789
35.4371
-1.95406
1941.68
35.543
-3.2983
1916.26
35.14
-1.21849
1858.58
34.3821
0.702729
1806.28
33.2841
3.18245
1759.03
35.1211
-8.03641
1705.39
12.1363
-4.09403
1640.21
11.9901
7.6933
7.87145
-397.094
0.943875
10.6591
-1.91462
399.542
-92.1813
-0.735445
-2.63136
2.55887
1.51421
91.475
-68.5594
-2.10901
1.7382
-0.777536
68.6762
1.03164
35.8289
1969.97
36.053
1962.7
35.9363
1921.69
35.4585
1875.33
34.8002
1825.12
37.5365
1768.91
40.3062
1712.67
10.1405
1710.55
-1.46681
-3.2301
-5.95007
-8.33123
9.81719
9.8568
10.2333
-5.63417
10.5713
4.84902
412.466
-412.112
-381.192
0.497731
-10.4326
10.1303
-0.175647
381.172
42.9199
1721.2
-4.16007
-2.39807
-6.81599
-5.38387
1648.18
-0.0293427
1.55079
-3.69749
-3.04269
-110.527
-0.32805
2.0717
0.356064
110.476
-1.9249
-92.9594
-0.114946
0.137426
92.9758
1.88607
-89.735
-0.0942631
-1.83308
1.81491
0.0738218
89.7736
-80.7889
-0.174028
-1.68271
1.59569
0.185538
80.8644
-75.5428
-1.65863
1.45851
0.350192
75.505
-0.11225
-68.3791
-1.31817
1.25258
0.151123
68.405
-0.111363
-1.11535
-464.919
8.57068
1.17657
464.744
-1.01827
-434.639
-8.56476
8.42101
1.28968
434.511
-0.758223
-407.21
-8.23206
8.02765
1.06531
407.108
-1.43549
-396.223
-7.86183
7.86346
1.63267
396.024
-1.66364
-399.141
-7.92153
7.70757
2.18888
398.83
-1.96264
-376.002
-7.29157
6.81647
2.70226
375.738
-0.725959
-356.45
5.84529
4.75413
356.27
-0.847592
-1.3146
-1.18283
-6.34799
-85.8731
-1.68384
-1.3348
1.46296
1.51942
85.9094
34.9777
4.28453
1905.82
-1.45576
-1.37635
-0.704437
-1.15617
34.71
6.0455
1848
-1.42058
-1.17016
-1.401
-1.59715
33.9379
6.92542
1768.84
-1.14262
-1.44916
-1.60642
-1.62131
33.1825
8.40285
1724.87
-1.83998
-2.54915
-1.76348
-1.47276
31.7947
10.8094
1687.33
-2.91191
-2.90341
-1.72102
-2.03963
30.0408
15.1305
1627.23
-3.41929
-3.59889
-2.74347
-3.39753
6.9183
23.8652
1548.92
7.77315
6.84481
7.18584
-5.20668
-5.97305
-5.06844
-5.71848
-366.288
-7.97683
8.23776
366.085
1.91914
1.66593
1.64427
1.63053
35.4321
3.87729
1941.75
35.496
5.97123
1916.27
35.0382
7.37526
1858.59
34.3087
8.95566
1806.45
33.3283
11.5229
1759.29
32.3721
16.0285
1705.45
8.35874
24.2088
1639.61
8.76193
7.64487
7.86392
-9.28935
-398.27
8.15916
8.60811
399.15
-91.2419
-2.28602
-2.19935
2.35834
2.31283
91.0561
-68.8279
-2.14319
1.7124
0.56788
68.7972
-0.10633
35.8162
1970.11
35.9975
1962.81
35.8268
1921.87
35.349
1875.6
34.7465
1825.48
34.4324
1769.26
35.7621
1712.84
9.75104
1710.21
-10.0557
-8.37216
-5.40533
-7.70066
9.43208
9.91338
10.2808
-7.54321
-412.427
10.3032
7.21372
412.204
-3.21951
-381.012
-10.3013
9.94778
3.71622
380.869
42.6473
1721.38
-6.99259
-5.78265
-6.30688
-5.027
1647.81
-4.11051
-2.80231
-3.60176
-3.13043
-110.514
-0.322132
2.07426
0.335493
110.475
-93.0093
-0.0878655
-1.93062
0.10805
93.0302
1.8896
-89.7912
-0.0715373
-1.83304
1.81612
0.053462
89.8262
-80.839
-0.144168
-1.68192
1.59677
0.167706
80.9006
-75.6408
-1.66396
1.46839
0.324403
75.5796
-0.0676839
-68.4312
-1.3297
1.27157
0.117485
68.436
-0.0641296
-0.86504
-464.648
8.57033
0.861761
464.532
-0.81706
-434.363
8.42014
1.04552
434.289
-8.57523
-0.641604
-406.94
-8.23728
8.0283
0.888302
406.903
-1.25599
-395.867
-7.8709
7.87493
1.33179
395.787
-1.26071
-398.68
-7.95273
7.75168
1.62022
398.521
-1.62816
-375.576
-7.36681
6.89859
2.2057
375.466
-0.611513
-356.135
5.95417
4.24171
356.08
-0.720848
-1.24753
-1.10181
-6.45933
-85.9461
-1.57458
-1.36284
1.44286
1.44071
86
34.966
3.57354
1905.37
-1.12668
-1.04805
-0.460288
-0.915508
34.7283
5.3832
1847.49
-1.16664
-0.917182
-1.17612
-1.37201
34.0124
6.17742
1768.25
-0.9243
-1.18394
-1.38952
-1.37426
33.3327
7.30728
1724.29
-1.47009
-2.02326
-1.46483
-1.0972
32.0242
9.367
1686.72
-2.30305
-2.24532
-1.31125
-1.59431
30.4223
13.4928
1626.56
-2.85267
-3.01542
-2.34692
-3.0088
7.02704
21.8959
1548.46
7.87065
6.9072
7.23432
-4.61088
-5.4165
-4.68115
-5.33706
-366.15
-7.53468
7.7534
366.056
1.92639
1.67742
1.66327
1.63518
35.4196
3.43426
1941.58
35.5161
5.50942
1916.04
35.1132
6.82451
1858.34
34.4453
8.21254
1806.22
33.5471
10.5121
1759.05
32.7247
14.6879
1705.07
8.44992
22.3484
1638.95
8.84949
7.70401
7.92675
-8.7015
-397.884
8.23495
7.94937
398.851
-91.1949
-2.19877
-2.19535
2.35035
2.21409
91.0246
-68.8287
-2.14417
1.7213
0.522471
68.7782
-0.0490602
35.8194
1970.14
36.023
1962.83
35.8856
1921.88
35.452
1875.64
34.9252
1825.48
34.6942
1769.17
36.0128
1712.48
9.80041
1709.5
-9.37969
-7.78903
-4.96624
-7.25865
9.47989
9.94726
10.3079
-7.03624
-412.106
10.3342
6.66302
411.946
-3.05079
-380.769
-10.3293
9.97047
3.47454
380.704
42.7597
1720.9
-6.47403
-5.36876
-5.93889
-4.70497
1647.23
-3.82911
-2.59659
-3.3658
-2.95031
-110.521
-0.319039
2.07646
0.329523
110.482
-93.0574
-0.0690516
-1.93491
1.89313
0.094191
93.074
-89.8306
-0.0547731
-1.83368
1.818
0.0393638
89.8617
-80.8512
-0.118879
-1.68247
1.598
0.144004
80.9105
-75.6544
-1.66809
1.47527
0.305334
75.5814
-0.0394559
-68.4113
-1.33959
1.28233
0.101943
68.4081
-0.0415437
-0.767429
8.57538
0.7109
464.432
-464.501
-0.72408
-434.208
-8.57831
8.42825
0.900202
434.182
-0.547674
-406.807
-8.24061
8.03231
0.741548
406.821
-1.14923
-395.726
-7.87952
7.88569
1.15651
395.712
-1.13087
-398.503
-7.97275
7.77869
1.39902
398.429
-1.50147
-375.428
-7.40807
6.94452
1.99802
375.395
-0.559078
-356.052
6.00393
4.03952
356.05
-0.681435
-1.21014
-1.07595
-6.51483
-86.0169
-1.51051
-1.36364
1.42047
1.411
86.0596
34.9651
2.91628
1904.96
-0.927387
-0.845217
-0.352719
-0.801412
34.7586
4.67502
1847.03
-0.97195
-0.710544
-1.06836
-1.25267
34.0605
5.39294
1767.74
-0.718523
-0.956177
-1.26997
-1.24197
33.4229
6.38027
1723.75
-1.21758
-1.72769
-1.32106
-0.934581
32.1558
8.27388
-1.99421
-1.91334
-1.14041
-1.40983
30.5821
12.374
-2.55451
-2.73654
-2.17272
-2.85854
7.04773
20.9464
7.88886
6.92106
7.24764
-4.36151
-5.22607
-4.53862
-5.22309
-366.219
-7.41043
7.59273
366.177
1.9289
1.67755
1.6664
1.63478
35.4328
2.8353
1941.32
35.5507
4.83454
1915.77
35.1785
6.0422
1858.07
34.5532
7.30914
1805.91
33.6901
9.48026
32.9021
13.562
8.48678
21.2269
8.8954
7.72886
7.95287
-8.45367
-397.699
8.25152
7.65754
398.73
-91.1829
-2.15936
-2.18927
2.34048
2.17395
91.0171
-68.7795
-2.13924
1.72287
0.485007
68.7284
-0.0175623
35.8438
1970.04
36.0533
1962.74
35.953
1921.75
35.5568
1875.49
35.0521
34.8526
36.1502
9.8157
-9.03419
-7.51918
-4.79055
-7.08686
9.50386
9.9599
10.3201
-6.83189
-411.912
10.3403
6.40176
411.818
-2.96295
-380.69
-10.3327
9.97159
3.34219
42.7957
-6.14859
-5.1233
-5.77069
-4.56075
-3.64278
-2.43573
-3.24001
-2.85128
-110.528
-0.31672
2.07746
0.325846
110.49
-93.0836
-0.0543385
-1.93867
1.89544
0.0849549
93.0962
-89.8512
-0.0403756
-1.83451
1.81985
0.0294312
89.8768
-80.8551
-0.0991023
-1.68381
1.59926
0.125955
80.9128
-75.6345
-1.66892
1.47795
0.28907
75.5578
-0.0213927
-68.3712
-1.34319
1.28621
0.0891756
68.3676
-0.0286156
-0.723986
-464.432
8.57653
0.640141
464.387
-0.679068
-434.137
-8.58118
8.43118
0.827986
434.138
-0.502251
-406.76
-8.24283
8.03583
0.666039
406.803
-1.09399
-395.687
-7.88742
7.89393
1.07439
395.701
-1.07298
-398.455
-7.98273
7.79053
1.30736
-1.4415
-375.395
-7.42143
6.95735
1.90868
-0.529526
-356.051
6.02151
3.95008
-0.668678
-1.18996
-1.06915
-6.52742
-86.0554
-1.46894
-1.3605
1.40127
1.39201
86.0916
34.9861
2.48084
-0.822876
-0.73702
-0.308386
-0.754089
34.7687
4.21036
-0.868686
-0.597443
-1.0271
-1.20307
34.0888
4.88124
-0.606083
-0.835698
-1.22274
-1.19073
5.79639
-1.09171
-1.59352
-1.26827
-0.876966
35.4534
2.32856
35.5756
4.29332
35.2201
5.47062
6.66168
35.852
36.0842
35.9999
-110.534
-0.315148
2.07785
0.324493
110.495
-93.0881
-0.044342
-1.93848
1.89655
0.0799809
93.0943
17.7629
1552.13
7.00025
7.36488
-3.76438
-4.86098
1640.47
7.89054
8.14658
-1.36039
1.30264
0.0645145
68.4762
-0.025091
-0.756344
-7.56185
7.12054
0.745929
376.413
-0.538007
-355.951
6.0572
4.30596
356.603
-0.695143
-1.57385
-1.57188
-6.63571
-86.1207
-1.48158
-1.35107
1.40675
1.37903
86.1676
32.869
1684.07
-0.122202
-2.54482
-1.65443
28.7745
1623.22
-0.975513
-1.99827
-4.04787
-14.7107
7.13822
50.9921
1569.08
8.08081
3.5265
3.87668
-4.21501
-5.56159
-25.3502
-26.6689
-366.792
-7.94057
7.20903
367.789
1.92261
1.67667
1.67348
1.6
8.66995
1650.39
9.12571
4.08334
5.00646
-7.73121
-398.428
8.38867
6.51182
399.929
-91.2273
-2.08042
-2.18763
2.33081
2.05023
91.1143
10.0307
1708.35
-7.53924
-5.90178
-12.9534
-11.4936
9.70995
9.75463
10.1193
-5.62495
10.4411
5.02966
412.584
1718.96
-4.72423
-3.97727
-7.23376
-6.40535
-1.02822
2.05903
110.829
0.914799
-1.99807
-1.91676
1.88272
92.9636
1.9839
-2.29107
-1.84539
1.81919
89.5225
2.36776
-4.97787
-1.63034
1.54476
79.9976
5.50449
-1.88374
-75.8931
1.43767
3.87415
76.5657
-4.10074
-1.34699
-68.4881
1.31404
3.13551
68.3012
-2.91568
-8.6429
8.38477
8.72704
465.265
-17.1375
-8.44164
8.43366
17.971
434.196
-20.9632
-8.32702
7.98556
21.2171
408.015
-28.9989
-7.74949
7.7151
28.3525
397.821
-24.0661
-399.233
-7.71247
7.46871
28.0396
395.504
-25.1243
-377.075
-7.33676
6.70722
25.7621
377.066
-18.6397
1.01425
95.8922
355.208
-19.0555
-29.6993
-26.8011
-356.433
-1.4856
-17.1137
1.51489
-86.209
-1.07847
16.5533
86.3329
33.9035
96.615
-9.00731
-15.6106
-37.6229
-61.6633
34.5768
153.945
-18.2642
-18.5025
-61.504
-59.5368
32.6901
138.7
-21.2517
-26.4932
-54.3351
-43.112
31.903
124.213
-28.3603
-30.6076
-34.3727
-29.9815
29.5778
125.639
-29.9714
-23.5902
-30.0259
-38.3856
27.4775
119.328
-26.4326
-67.7736
-37.7952
8.31614
-9.82071
114.399
-13.6364
17.4153
18.0651
-96.4043
-85.8562
40.7652
35.3944
-80.6044
72.5367
379.861
-372.613
-2.48502
-1.74167
-1.25091
-3.52304
34.8834
91.9378
35.8639
148.188
34.1347
135.3
33.0979
122.23
31.0955
124.256
26.4091
118.504
-15.0764
113.864
-10.5197
18.886
15.7182
-75.5752
-397.483
-7.49507
75.8557
389.621
-7.12151
-92.2643
-1.02017
1.62084
93.0793
5.70577
-2.10548
1.59327
3.71179
68.6853
-2.98015
35.2524
36.3985
35.0736
34.2452
32.4483
27.6012
13.1357
4.88546
-64.2548
-48.3495
3.44975
-15.1159
4.88703
5.69969
5.97034
-33.6793
-412.371
6.91328
34.7492
409.274
-26.2171
-8.63196
8.67881
27.9835
379.546
35.5111
-34.8571
-33.1303
-32.4828
-33.6155
-28.5493
-29.066
-37.0382
-35.1499
-1.82278
1.60977
1.76986
90.0535
-0.124163
13.1052
-13.1248
-1.57995
88.3118
-1.35708
-67.7525
1.25913
-4.48947
4.27771
34.4492
-33.8954
-1.92933
-13.341
14.7166
6.97019
-7.30652
353.265
10.1036
4.4743
8.72468
5.15138
-26.3102
-87.0348
-90.0479
-89.093
-88.8965
2.39194
337.612
11.5725
12.3241
18.9456
7.80097
3.14112
2.33295
2.92986
-47.6307
-83.8124
-88.0705
-86.0369
-86.5305
-21.8355
0.426848
84.2609
0.0914876
14.1505
-0.675031
80.2851
0.0289744
-1.23502
-2.80015
-4.35969
-0.91864
-12.5438
0.208895
-16.765
85.3231
-85.1274
16.6523
2.3089
2.42429
-14.5825
87.0704
-87.2034
14.9818
-2.69069
-1.95648
-0.121339
16.4701
-13.4957
44.8705
-43.7293
14.7788
3.36338
-15.0488
-1.39248
81.044
-4.026
-85.3419
3.63115
-13.2219
-66.922
-19.8067
-96.1107
-85.123
-83.0279
-81.7009
344.813
21.226
13.6774
19.2289
11.5199
4.42611
5.29752
7.57424
4.92827
-0.527223
0.908884
7.53955
-0.191639
376.692
2.74072
-0.952128
2.98853
-1.02377
1.85301
4.54383
-4.44831
-1.09107
88.8002
-59.1787
5.87263
5.27746
7.25976
4.78613
52.0512
-50.9896
-4.24716
-5.60761
8.79321
22.274
-62.1037
386.096
3.66188
-26.5211
-91.5115
-95.6463
-83.5986
-96.5522
365.359
12.1122
5.72802
9.5157
7.66484
4.34817
3.51474
4.19879
97.825
-9.21234
-0.811225
-1.97519
-1.32739
-3.97239
0.509139
0.22813
0.417377
1.49322
-0.333231
6.8031
0.27579
-2.53473
109.052
-108.288
2.01863
3.41457
-2.51113
1.04815
2.57791
90.4109
0.28489
-2.3243
87.1066
-2.08939
-68.2691
1.83423
-3.5647
3.52955
-11.436
-25.265
360.723
8.5817
3.71402
7.13912
4.06092
-87.8858
-90.8442
-90.2298
-89.5118
2.84828
2.56594
2.97118
2.56841
-4.60614
87.2045
-87.2329
4.6944
-2.66479
1.8229
93.8289
-0.086082
0.450533
-1.26318
1.60236
-0.449147
20.7968
-1.80055
94.1764
-94.1073
1.72805
1.83524
1.5806
-4.64618
76.3433
-76.0421
-1.59468
4.35902
1.5686
0.434491
20.4454
0.383112
-1.12087
1.44689
-0.397858
19.6424
-4.74027
74.5516
-74.2269
1.56274
4.4335
1.45023
-4.60221
71.8217
-71.4976
-1.45574
4.28359
1.49218
0.39005
19.7698
0.114095
-0.752185
0.110465
20.6948
0.151097
-4.58851
72.16
-71.8127
1.46165
4.22978
1.42664
-4.92857
68.9794
-68.0211
-1.45919
4.00274
0.25652
19.5491
0.0255844
0.264732
1.36829
-0.370492
13.7794
0.0851099
-4.84317
66.2082
-65.0885
1.38063
3.7695
0.254433
12.9536
0.0675065
0.365646
1.39905
0.361961
-0.290686
69.1094
-0.388961
-1.65212
0.673476
-0.42357
1.78041
-1.88895
-1.9519
1.84638
94.4032
-0.570927
0.0509322
92.0214
-1.81917
-1.45063
-76.1184
1.51381
-3.53762
4.11657
69.4167
-69.3714
-4.13775
-1.4255
4.16088
7.81225
-7.93324
390.967
4.93352
3.5884
4.8279
3.57316
-23.6923
-96.5502
-95.3552
-97.1857
-94.9856
374.858
3.98129
7.48198
6.06195
3.86546
-23.461
-92.2769
-92.3535
-94.276
-93.3757
9.20862
-1.77845
-79.1537
1.80561
80.8017
-10.8838
-0.366763
-0.22077
13.1622
-1.21545
1.7533
82.1403
1.54934
0.143604
0.790288
-0.126284
1.04932
-1.61944
-2.15199
1.55767
-9.62396
-18.568
-16.5698
-15.4837
-18.8588
-1.02111
67.6043
10.9635
1.49777
-17.9915
-13.357
-15.0164
-17.6057
64.2487
8.99045
-1.87252
83.8867
-11.2763
0.406913
0.311949
0.907052
0.582723
1.0954
-3.41475
0.391659
0.392488
0.379367
0.97064
8.26864
3.09373
-12.5477
-23.2027
-11.2029
-16.0213
50.6415
-0.185485
2.03315
-2.04241
18.6393
0.119499
2.00076
0.920193
-17.6147
-18.0946
-20.1763
-16.9965
70.9318
0.377066
0.986014
21.2786
-1.29831
-0.298103
-1.0284
13.1183
86.8409
3.08962
377.804
-3.61185
362.933
-3.14806
1.37516
1.14064
-13.1832
-11.6856
-18.7308
-4.99623
10.8755
-88.981
28.2598
16.9448
25.0424
-11.5532
-75.9645
18.9565
15.9462
21.5791
4.93275
4.15428
5.24311
342.182
-86.9663
-85.0407
-85.9157
-86.8399
12.2813
377.691
-12.398
355.41
-10.0554
1.64491
15.9649
-17.7667
-12.3589
-13.984
-15.9483
54.8902
-2.38656
79.7826
15.3418
-1.07141
-0.00841791
-0.696353
-0.102407
2.48474
-0.130367
5.32496
-8.1551
85.4531
-0.476475
-17.2783
-12.0324
-7.16373
31.3115
-5.02279
9.7556
77.8182
-0.821368
0.479639
2.22108
20.0132
-2.06147
0.243634
-0.529959
0.401431
-0.293692
20.6577
0.374759
-0.399259
-1.77835
-20.3063
-13.2383
-8.03098
36.5035
7.24962
-0.427168
0.856102
21.049
395.119
-13.5564
9.84699
-1.90029
9.80561
-2.04433
3.91872
2.46446
3.95711
2.48373
0.97652
-1.1358
93.6682
-2.40221
-3.53008
-92.9344
3.05798
-1.30949
81.0201
-80.841
-2.32213
-3.23877
3.29242
13.6032
-14.4237
398.208
7.01605
1.66196
6.86073
2.45112
-20.2588
384.967
3.38576
6.44341
6.38449
2.85451
-22.7674
-94.1548
-94.0021
-95.4189
-95.5244
10.2176
-2.6701
-77.6196
2.57689
79.1306
-11.6354
-0.285336
7.41457
-0.534616
1.54617
82.4807
2.26071
-2.17478
0.0352066
-0.112041
-0.42631
0.665025
-1.13486
2.13918
-8.28416
0.00291881
68.6315
-18.2319
-19.3426
-18.8852
-15.7053
9.67541
9.63568
-16.6457
-8.6889
-12.8292
-22.0342
53.9616
8.95741
-2.76568
84.4369
-10.1447
0.512781
0.33168
0.369678
0.488786
0.922362
-1.62685
0.529196
0.494677
0.531026
-33.7036
0.112535
15.7795
32.9138
-15.1022
6.21813
353.08
-6.9368
-353.74
-9.24143
-3.20527
-4.6664
-6.63243
0.660739
-338.172
-12.3031
-13.8683
-7.8193
-20.9648
0.614972
0.0428585
0.150805
52.4835
84.7754
87.9521
87.1562
85.5092
-1.95786
0.591987
6.85464
-67.2008
-10.357
-6.52452
-8.83655
-6.1398
-11.9522
-10.3233
35.6308
1.50594
1.46922
1.31509
1.39668
3.10929
-11.4631
11.5272
-1.5253
-88.2363
-85.1822
-18.5579
0.617418
85.1437
0.361511
17.0382
-87.5933
-18.2409
0.445757
87.9887
-19.7101
19.5388
2.45357
-84.3636
0.876345
-20.2172
-3.65443
-83.5996
0.867879
1.47268
3.57168
3.92615
4.09082
7.36006
13.073
-45.0542
44.0574
-15.7554
-2.6702
2.67246
0.63365
-15.8123
8.25081
-347.016
-23.0487
-17.294
-17.3139
-21.7506
-0.809411
-2.62022
-1.12187
-4.68666
98.3775
83.8245
83.0132
81.5914
-4.53658
-15.8533
-82.5087
1.41439
5.7545
5.6081
1.06874
0.762631
1.68978
0.79962
-18.9293
-6.43287
17.6816
7.08618
-84.0779
-51.5454
-0.878479
10.6081
50.1604
-8.34455
-7.64661
377.174
-386.202
360.883
0.38976
-365.019
-16.7414
-10.1078
-12.8342
-13.3135
0.223907
-0.624704
-0.797115
50.2941
-20.2694
5.29396
3.04849
2.74137
2.65107
18.2699
0.183348
-0.394066
-0.306797
0.174999
-7.64759
0.0498573
12.3696
-18.5638
2.80007
0.162526
1.7585
4.63021
0.878452
2.39344
0.719872
0.708578
3.5942
-109.611
-9.5486
3.45613
108.972
1.17738
14.7219
-104.655
0.793973
0.793063
5.71386
1.00642
-0.454694
-0.291356
-7.28654
-0.206328
359.112
-8.55419
-7.91726
-4.2236
-3.86478
-7.63705
1.86782
2.24841
2.1728
1.87087
5.28208
-5.44119
-2.12388
87.3259
0.535327
1.41148
2.89172
-70.8572
-0.54533
0.20454
-0.553334
-4.54249
-2.59326
-4.18352
-5.04043
-14.1692
-11.4886
39.4982
2.22026
2.16546
1.50311
1.55419
-2.58255
-1.69343
-1.78646
1.52356
-2.30903
-87.0468
10.5581
1.85011
77.3816
-7.37467
-20.1441
-20.2205
-19.6434
-20.6015
7.83664
-1.08587
1.50046
0.848208
-0.946645
20.0847
-0.230054
-5.22133
4.13154
-16.3377
-11.6621
32.1958
-3.10619
-20.2275
-8.40094
-23.4626
54.5032
4.42228
90.1797
4.88253
-19.7037
-20.7329
-26.469
-20.1742
-0.543114
20.3917
0.536089
0.395088
19.4332
-15.1954
-9.81497
26.855
-13.0092
-0.906798
17.3176
0.202295
0.60064
-0.95368
21.0939
-0.2653
78.6765
-18.6452
-18.0861
-23.8093
-18.5775
0.477781
9.01384
-0.443273
-0.00285054
76.5575
-0.976838
5.70497
-3.04119
0.462182
-1.91896
0.704762
-21.0432
1.27438
-1.56353
87.8177
13.7998
-15.9751
-10.0761
-15.8392
-10.4201
40.7281
-10.4144
-0.155179
79.7159
19.365
-0.323117
18.6352
0.336083
-0.546467
-6.93615
-16.5204
-13.0366
-15.8867
42.6612
2.0142
8.10147
-1.11414
6.46815
4.1775
-8.14543
-16.0994
-22.5821
36.1812
2.75881
0.419141
-0.360574
19.4869
-3.0401
10.6823
0.378601
65.3584
-16.494
-19.1449
-16.3125
-18.5924
0.592648
0.135318
13.9849
2.71688
-0.8297
-1.08301
-0.578253
-89.6269
4.93113
90.3673
91.6829
12.6924
-0.0860449
-0.281029
-3.9053
0.00927692
-2.89359
-6.18698
-11.2766
0.459325
-0.625762
20.946
-0.41946
2.4786
6.87929
-18.3255
-7.893
-13.9978
-19.2016
49.3428
0.717208
106.847
5.37339
87.2183
-20.4882
-20.5037
-24.9705
-20.7275
7.945
0.0242499
0.319943
0.185175
0.259144
-0.491942
0.794513
18.0919
0.380353
0.517981
0.617951
-0.546482
19.0109
-0.601802
2.53626
-3.43763
-2.8222
107.224
-5.67509
-2.35871
-17.2223
-17.562
-16.1224
-17.9192
67.4464
4.49623
3.46908
74.6071
-8.37392
-23.1004
-18.9233
-20.512
-18.0053
7.40106
0.291118
0.341606
21.2601
-0.261237
-4.51199
-21.0212
-12.1862
-8.75946
37.6069
12.341
7.82364
-10.5498
92.393
-26.1029
-19.3507
-18.8129
-19.6311
-11.8073
-15.0097
31.5133
12.763
-0.0338215
19.4986
-0.0478039
0.481326
1.28809
0.506718
0.473101
-1.9689
92.6181
-4.04005
9.02065
456.12
12.9633
-0.584624
-0.167151
5.42162
433.674
8.82836
16.7361
4.2857
14.5544
2.18877
-39.0771
-110.793
2.10462
-1.76964
1.96673
95.4119
-95.2202
-2.02666
-4.7779
8.67334
458.073
-18.3847
7.27232
2.02175
3.33285
3.50754
8.54828
434.4
10.0982
4.95234
10.7843
4.62888
-31.0648
1.26264
0.463644
0.466933
-1.74685
86.4225
-3.93333
8.31106
408.803
13.4639
4.3096
13.7542
4.43064
394.904
7.89602
13.3671
4.28617
13.2312
4.46768
-37.0037
-92.7323
1.92503
-4.89728
1.8153
89.3035
-89.0683
-1.81813
-4.83467
8.14357
410.884
10.7378
5.05406
10.6965
4.92707
-33.0915
7.81988
396.724
10.6953
4.96498
10.6384
4.91783
-32.7123
0.897593
1.99839
1.06936
-1.77463
87.6976
-3.25049
0.475268
0.4673
0.493537
8.09963
386.077
13.4676
4.29932
13.0936
4.33183
378.187
1.94806
14.7586
2.45087
17.1748
4.15493
-34.9432
1.88912
2.08895
2.03874
-89.3076
1.81929
-4.85031
1.73131
83.7658
-83.1839
-1.79706
-5.44471
7.95133
386.834
10.9251
4.99454
10.5674
5.11241
-32.4876
7.84572
375.587
11.4913
5.24056
11.7401
5.26048
-31.0267
-0.347199
17.9083
1.31132
0.31257
1.89113
95.1228
0.995545
-1.46689
95.5091
-1.8665
-79.6573
1.63439
-5.32638
83.0539
-83.3613
-1.10775
-3.75684
3.72133
7.64904
369.179
9.95746
4.97782
11.3171
4.67827
-26.3871
-92.4239
-94.7314
-91.4479
-94.923
385.904
3.98676
6.1853
7.941
3.97736
-26.244
-96.0906
-96.921
-93.9612
-95.0618
0.171656
-0.346724
-18.5834
0.333995
15.7934
-1.25289
0.252543
2.31529
18.9725
0.371265
0.368919
-0.00269639
0.383325
0.402399
0.447844
0.366397
8.78439
-0.182676
2.50072
-2.02101
4.51391
12.4778
-8.20737
0.234103
373.017
-8.23893
4.4219
4.38622
3.62391
2.22646
4.17203
5.41203
421.706
390.879
23.7568
-63.2342
-33.3271
388.624
4.36585
3.15771
3.90211
24.3589
413.656
403.07
-24.4862
368.627
-0.250694
12.8913
11.9711
11.9098
395.977
-12.1432
387.622
11.5193
-26.092
-12.0626
-27.8654
367.561
10.6629
3.94466
10.1266
12.0246
396.453
-12.2346
387.541
1.72595
94.2472
-0.95912
1.56327
1.93923
-1.58766
76.9479
-1.77822
5.7451
1.82845
-93.9454
-5.71454
1.45084
12.4609
-1.29828
-76.5899
-16.7692
1.54057
75.1499
-1.84499
1.50438
2.06906
-1.51011
72.3964
-1.91576
11.7117
1.46912
-74.5744
-15.9964
1.6126
11.0203
-1.53635
-71.7224
-15.0266
1.49498
72.6732
-2.08746
1.3832
4.57983
-1.44284
68.4718
-3.62048
10.1873
1.29628
-72.0402
-14.3614
0.668397
0.697846
-1.01474
-20.5243
-0.145449
1.23232
65.2155
-3.72132
0.695594
0.465926
-19.2214
-0.024773
0.289114
-1.33787
-0.206412
-13.9327
0.0607876
-1.43325
0.273579
-13.1093
0.033766
-69.5882
2.60555
69.6183
-1.32801
-2.65461
7.20123
387.55
-7.75568
-391.238
-5.86022
-4.17224
-3.58036
-6.21072
372.228
-375.186
-2.5677
-5.50915
-5.4018
-3.09761
19.799
-0.378462
0.35818
-1.24571
-17.2652
6.53668
-69.8522
-1.14898
-7.71362
7.29577
-1.93692
3.75874
3.24353
-8.67652
-7.16779
25.2196
-1.9709
-1.75565
-1.84202
-7.45027
-8.96661
-1.82982
-9.58971
33.8903
84.9322
-1.63254
-2.14985
-2.53742
-18.1589
-20.4388
-23.3552
-342.613
88.2012
85.4732
85.8099
86.0364
1.01121
378.311
-377.94
-1.89435
363.581
-355.243
-42.1974
-10.2757
18.3708
0.122586
0.965522
2.70094
1.86996
2.83154
1.86391
-3.66394
-18.5805
-85.2515
10.2964
-10.6904
5.98566
1.78356
1.94067
19.2398
0.918604
19.8266
0.744642
-81.4863
-3.44955
4.59391
81.4419
-3.20545
6.49422
395.061
-398.45
-4.11569
-10.4686
-5.65635
-5.73759
-10.8058
-386.19
-4.94433
-8.56971
-9.43355
-5.44001
31.954
95.136
94.2773
95.7519
95.3985
-2.79096
3.03799
-89.9156
2.26255
-0.512324
-0.0668285
-21.5541
-5.80599
32.5093
-2.4366
-1.4151
-13.2023
-13.401
2.60966
2.52663
1.08044
1.07984
0.702382
-0.366306
-93.9179
-2.62933
0.708888
-16.7311
0.62837
-0.587349
-0.356458
14.7307
-0.214293
0.490815
-0.479416
10.0023
-1.71088
-0.0937566
-0.427402
-0.0965871
-0.776207
8.67797
-77.993
72.9197
77.0575
0.221163
-9.06976
-2.36352
-6.87887
0.420747
80.9317
-10.9575
-0.228468
1.12416
83.9992
-1.47962
78.4715
-1.49847
81.0826
-3.85629
-2.08383
-6.07896
0.154318
0.348581
0.133712
4.92161
-0.225873
-6.803
-4.82889
16.1771
0.215301
-2.25043
13.4364
-1.97913
-0.79622
-0.872531
-7.93182
-2.25397
-10.6675
-1.63762
2.27081
12.5305
-90.7696
78.4288
-1.16142
78.6867
-12.012
-1.47832
-0.282151
-1.14536
-8.56791
-1.75311
-13.5529
-1.64937
-4.49388
-3.9335
-0.0625764
-0.762778
10.9473
2.31538
-0.744207
-0.4966
7.93908
3.86474
-0.856491
0.0232611
-1.92093
-18.3402
1.8263
18.3158
2.08755
13.6087
-0.161635
0.717663
-0.0185343
1.22883
-1.22704
-0.355241
0.885692
-0.0227442
1.08571
0.0313347
3.47426
-87.3452
83.402
-1.19125
0.497674
0.447177
0.349979
-0.53178
-0.469879
-1.03406
88.1003
-8.25065
-2.8494
-2.39704
12.2282
-0.390829
0.941467
0.0916334
0.759706
5.91551
0.127887
2.6883
10.2058
0.0938016
-7.7387
2.53087
0.103686
-0.429503
0.116177
-11.6258
-83.6259
-2.90744
84.788
87.6451
-0.246197
-2.43763
-3.02328
86.8066
-3.05382
88.021
-2.37514
-0.121797
-0.163495
-0.225452
84.2651
0.470239
0.469143
-0.898192
1.74649
-0.162603
0.578515
1.73098
93.8548
-4.94337
5.02473
1.64486
84.3614
-11.0825
11.0723
-0.779871
0.459403
21.8457
0.82485
-1.93955
1.67597
-17.6899
-20.8379
-21.0081
-17.3717
-11.7837
76.1655
12.7895
-13.8253
-18.0427
-21.8201
-21.6399
-19.1043
79.2414
14.8964
0.416309
-1.29949
-0.423556
19.912
1.58434
1.58838
-11.1222
-17.0064
-20.479
-20.3598
-17.138
74.1182
12.0748
1.52153
-10.8182
-16.8169
-19.9062
-20.0377
-16.6332
72.4623
11.8168
-1.30806
0.40816
19.6844
1.57068
-1.44381
1.31076
-16.3587
-19.6981
-19.5456
-16.3459
-10.6578
71.3656
11.3737
-10.6803
-16.4226
-19.6767
-19.6666
-16.5057
71.4364
11.5933
0.368292
-1.28037
-0.37537
19.2374
1.55448
1.54091
-10.8481
-16.5896
-19.825
-19.8844
-16.6117
71.7349
11.7938
1.49349
-10.933
-16.3569
-19.3103
-19.5925
-16.0916
70.916
11.4159
-1.18562
0.359662
18.7263
1.38859
-1.33054
3.22664
-8.93191
-22.5364
-24.72
-24.2999
65.2731
13.319
-13.0465
-14.03
-18.8425
-18.4513
-15.637
68.6086
11.5617
0.376791
-0.82014
-0.353083
18.0616
0.00556209
1.6754
-30.7435
-20.3133
-21.1707
61.1712
12.6076
3.8915
-26.9024
-19.3029
-20.5298
52.2073
12.3117
-0.497629
0.376235
16.8279
-0.0148727
-12.7271
-17.8061
-11.8422
31.8174
14.4495
1.66337
-0.195765
6.54499
0.261253
85.1105
-1.71801
-0.542863
-9.55328
-2.13519
69.6547
10.122
-1.89913
86.6508
-11.067
7.22316
-86.3214
-1.88552
88.6231
-9.53847
-2.21307
0.722553
18.9801
0.334061
0.410921
-1.10761
72.383
-20.0859
-20.2576
-19.568
-18.0003
11.7244
-1.66375
-0.0727551
-0.329456
-0.808568
-0.265567
0.813243
0.268076
0.320906
-17.9345
15.0052
-1.31372
2.34911
-0.182625
-0.343083
-0.0740209
0.404908
17.3626
-0.327975
0.33181
0.476611
0.317441
-2.2231
6.27188
-16.4736
0.0921754
-5.28205
20.5894
0.842312
-0.178857
-8.79019
-0.190713
0.455809
17.6898
-2.26277
0.213247
1.87768
-0.104361
1.16947
-1.61752
-0.484908
5.53952
-13.1966
-4.31351
-4.17301
-0.0350763
-1.57224
8.14347
0.0881506
-0.701889
16.7002
-2.03607
-7.71731
-1.20238
-3.68794
-0.382312
-19.0242
4.42412
11.9613
1.41576
-1.37841
7.95085
0.0392669
0.83216
-0.64707
-3.71741
2.62047
-2.21566
1.51449
-0.489788
3.18633
-17.1105
-3.14376
0.793519
-3.54843
13.2402
0.122288
-0.302161
17.1587
-1.7397
-1.75686
12.3524
-0.552002
0.0464789
0.397108
0.167894
0.364336
-0.577961
8.56386
0.253439
0.259693
-0.603509
0.114809
0.62688
0.0738941
-0.548175
0.516
19.6407
0.576324
86.2505
-2.06219
-0.586008
-0.968374
-1.37662
-0.702792
1.64975
2.75613
-6.45716
81.321
-22.7352
-19.8029
-22.7109
-20.2436
7.87541
-7.02839
98.0553
-3.63281
-19.6027
-28.4194
-20.8558
-20.272
-3.02715
88.9849
-8.93007
-88.22
90.9856
-3.81396
-9.0072
-2.41148
-1.23409
-0.433586
-0.816896
-0.676671
2.25661
0.394698
0.46704
-16.7169
-0.458906
12.4985
-1.23384
-0.523519
2.11961
-0.0707603
-1.63112
0.42756
20.7866
-0.484879
0.579782
-0.419656
0.412968
-1.92287
-0.557926
3.53211
-62.0357
0.738034
0.290897
-0.365941
0.330071
-6.808
1.34255
-83.5828
-1.51676
-81.2506
1.32829
-12.0361
-1.4897
1.35341
-81.0304
1.40944
9.79203
-67.7668