/*--------------------------------*- C++ -*----------------------------------*\
  =========                 |
  \\      /  F ield         | OpenFOAM: The Open Source CFD Toolbox
   \\    /   O peration     | Website:  https://openfoam.org
    \\  /    A nd           | Version:  10
     \\/     M anipulation  |
\*---------------------------------------------------------------------------*/
FoamFile
{
    format      ascii;
    class       volVectorField;
    location    "2000";
    object      U;
}
// * * * * * * * * * * * * * * * * * * * * * * * * * * * * * * * * * * * * * //

dimensions      [0 1 -1 0 0 0 0];

internalField   nonuniform List<vector> 
8792
(
(0.371625 0.0146749 20.1362)
(0.336669 -0.00419866 16.914)
(0.312744 -0.0210072 16.0912)
(0.294718 0.0121406 15.2938)
(0.285615 0.0336812 14.5318)
(0.243083 0.0215748 13.7194)
(0.379993 0.0127013 21.3857)
(0.38545 0.0141736 20.0806)
(0.365939 0.0129192 19.0417)
(0.355791 0.0162176 18.4147)
(0.344019 0.0219054 17.927)
(0.330009 0.0381025 17.4766)
(0.292025 0.0638145 16.5157)
(0.204162 0.0485903 13.6841)
(0.388901 0.0113549 22.0629)
(0.394733 0.0188385 21.4389)
(0.388231 0.0190575 20.5966)
(0.378557 0.021579 19.9194)
(0.366937 0.0308688 19.4068)
(0.35167 0.0538297 18.9069)
(0.325115 0.102527 18.2182)
(0.29751 0.124831 16.5464)
(0.394201 0.0095378 22.4975)
(0.399893 0.0187449 22.1772)
(0.398568 0.0228671 21.5528)
(0.391524 0.02697 20.8748)
(0.382618 0.0369507 20.2992)
(0.372002 0.0580967 19.7752)
(0.360337 0.0984193 19.1979)
(0.355371 0.128187 18.1874)
(0.389576 0.158509 16.3605)
(0.317419 0.0674161 13.2269)
(0.399292 0.00740573 22.8248)
(0.403791 0.0170382 22.6986)
(0.405194 0.023321 22.261)
(0.401771 0.0291214 21.6758)
(0.395887 0.0395212 21.0768)
(0.389712 0.0588468 20.5199)
(0.388566 0.0923984 19.9713)
(0.40796 0.126934 19.3582)
(0.448657 0.123078 18.4196)
(0.450942 0.0687443 17.4946)
(0.472445 0.0963784 19.5989)
(0.483751 0.05928 19.0976)
(0.363991 0.024184 20.2294)
(0.34388 0.0114447 17.3627)
(0.322184 0.00346359 16.5099)
(0.316087 0.0149091 16.0599)
(0.286869 0.0192634 14.8642)
(0.258139 0.0244581 14.6008)
(0.37753 0.0152129 21.4183)
(0.383748 0.0170368 20.21)
(0.368932 0.0114775 19.1716)
(0.357226 0.0112471 18.5271)
(0.34319 0.0199477 18.0263)
(0.319261 0.0340995 17.5979)
(0.282204 0.0770486 16.8769)
(0.191518 0.113436 14.1603)
(0.388667 0.0109648 22.0747)
(0.394713 0.0176759 21.4658)
(0.388203 0.017893 20.6288)
(0.377993 0.0206149 19.9484)
(0.365983 0.0301453 19.4351)
(0.351323 0.0505068 18.9562)
(0.332862 0.0949478 18.3071)
(0.293781 0.157249 16.9089)
(0.393885 0.00975658 22.5053)
(0.399533 0.018263 22.1956)
(0.398416 0.0219609 21.577)
(0.391126 0.0261879 20.8996)
(0.381512 0.0364702 20.3242)
(0.371041 0.0577592 19.81)
(0.363296 0.0962841 19.2503)
(0.35413 0.147666 18.3665)
(0.412326 0.17576 16.613)
(0.358256 0.0638613 14.0588)
(0.398949 0.00796952 22.8298)
(0.403277 0.0173876 22.71)
(0.404927 0.0233959 22.2774)
(0.401385 0.0291899 21.6947)
(0.394962 0.0397748 21.0966)
(0.388966 0.0600862 20.5482)
(0.389072 0.0937082 20.0083)
(0.410648 0.126529 19.3928)
(0.452026 0.125393 18.5107)
(0.453083 0.0627578 17.6287)
(0.474807 0.0963641 19.6253)
(0.48413 0.0581657 19.1304)
(0.364916 0.0255527 20.2373)
(0.344658 0.0130547 17.392)
(0.322561 0.00465269 16.5387)
(0.315999 0.0156806 16.0965)
(0.288637 0.0195604 14.9321)
(0.263314 0.023068 14.6682)
(0.378028 0.0151258 21.42)
(0.384162 0.0180867 20.2086)
(0.368787 0.012863 19.1715)
(0.356887 0.014461 18.5285)
(0.343314 0.021581 18.0264)
(0.323347 0.0346421 17.6015)
(0.287537 0.0756605 16.89)
(0.200441 0.122666 14.2602)
(0.389116 0.0114654 22.0766)
(0.395358 0.0189172 21.4668)
(0.388304 0.0192344 20.629)
(0.378021 0.0219994 19.9482)
(0.366327 0.0313417 19.4351)
(0.351525 0.0510446 18.9586)
(0.333573 0.0936588 18.3139)
(0.296548 0.142484 16.915)
(0.394336 0.0091983 22.5075)
(0.400258 0.0175724 22.1972)
(0.398619 0.0215728 21.5778)
(0.391168 0.0260338 20.9002)
(0.381733 0.03619 20.3251)
(0.371249 0.056736 19.8128)
(0.364014 0.0957866 19.2533)
(0.357222 0.138063 18.3728)
(0.408861 0.174277 16.6197)
(0.360909 0.0585528 14.1116)
(0.399319 0.00719802 22.8322)
(0.403917 0.0162151 22.7124)
(0.405262 0.0221723 22.2792)
(0.401526 0.0282222 21.696)
(0.395217 0.0387694 21.0982)
(0.389241 0.0586033 20.5518)
(0.389483 0.0927646 20.0124)
(0.409985 0.125895 19.3953)
(0.453548 0.124932 18.5117)
(0.453728 0.0653008 17.6322)
(0.474816 0.0969131 19.6258)
(0.484512 0.0589162 19.1304)
(0.365331 0.0251046 20.2407)
(0.345596 0.0121027 17.4052)
(0.32267 0.00398818 16.5507)
(0.315823 0.0140745 16.1064)
(0.290292 0.0166288 14.9517)
(0.266867 0.0199572 14.6788)
(0.378191 0.0151034 21.4201)
(0.384464 0.0179154 20.2072)
(0.368945 0.0127487 19.1712)
(0.35698 0.0153298 18.5292)
(0.34406 0.0216163 18.0268)
(0.325447 0.0352333 17.6035)
(0.290036 0.0710674 16.8939)
(0.204693 0.112544 14.2766)
(0.389189 0.0113802 22.0763)
(0.395468 0.0187904 21.466)
(0.388384 0.0194107 20.6274)
(0.378254 0.0221853 19.9466)
(0.367098 0.0313314 19.4334)
(0.352249 0.0506519 18.9575)
(0.334475 0.0920114 18.3166)
(0.29923 0.136601 16.9216)
(0.394406 0.00906477 22.507)
(0.400358 0.017472 22.1964)
(0.39875 0.021455 21.5764)
(0.391393 0.0260087 20.8985)
(0.382347 0.0359953 20.3235)
(0.371799 0.0562372 19.8112)
(0.364475 0.094758 19.2516)
(0.357576 0.136094 18.3711)
(0.406493 0.170552 16.6219)
(0.362211 0.0534738 14.1113)
(0.399395 0.00706382 22.8319)
(0.404043 0.01611 22.7118)
(0.405346 0.0221515 22.2782)
(0.401659 0.0282279 21.6948)
(0.395532 0.0386723 21.0969)
(0.389605 0.0580883 20.5506)
(0.38972 0.0919244 20.0108)
(0.409679 0.124975 19.3937)
(0.452647 0.123811 18.5103)
(0.454031 0.0655297 17.6347)
(0.474529 0.0964079 19.6246)
(0.48487 0.0584989 19.1292)
(0.365551 0.0248505 20.2432)
(0.346398 0.0116296 17.4146)
(0.32282 0.00353583 16.5583)
(0.315882 0.0125819 16.1093)
(0.291419 0.0146721 14.9538)
(0.269707 0.0183122 14.6741)
(0.37829 0.0145619 21.4197)
(0.384703 0.0170355 20.206)
(0.369105 0.0117387 19.171)
(0.357277 0.0147965 18.5302)
(0.344768 0.0208901 18.0275)
(0.326902 0.0346297 17.6047)
(0.291892 0.0682249 16.8959)
(0.20442 0.108183 14.2875)
(0.389243 0.0108973 22.076)
(0.395561 0.0181374 21.4656)
(0.388474 0.0186446 20.6265)
(0.378489 0.0213436 19.9455)
(0.367664 0.0302771 19.4321)
(0.3531 0.0494175 18.9562)
(0.33501 0.0904623 18.3184)
(0.300305 0.134537 16.9284)
(0.394434 0.00869638 22.5066)
(0.400408 0.0170013 22.1957)
(0.398852 0.0209358 21.5755)
(0.391605 0.0254393 20.8973)
(0.382858 0.0352459 20.3221)
(0.372434 0.0552109 19.8094)
(0.365139 0.0933135 19.2497)
(0.35804 0.133895 18.37)
(0.404511 0.168317 16.6228)
(0.361954 0.0504852 14.1011)
(0.399422 0.00685801 22.8314)
(0.404097 0.0158678 22.7111)
(0.405422 0.0218954 22.2771)
(0.401831 0.0278993 21.6935)
(0.395891 0.0382338 21.0954)
(0.390045 0.0573023 20.5489)
(0.390135 0.0908413 20.0091)
(0.409717 0.123537 19.3919)
(0.452152 0.122149 18.5091)
(0.453867 0.065221 17.6368)
(0.47437 0.0953188 19.6235)
(0.484806 0.057451 19.1283)
(0.365653 0.0246481 20.245)
(0.346895 0.010994 17.4196)
(0.322978 0.00285076 16.5619)
(0.31606 0.0112645 16.1102)
(0.291818 0.0131822 14.9495)
(0.271231 0.0172835 14.6655)
(0.378331 0.0141978 21.4194)
(0.384908 0.0164844 20.2057)
(0.369284 0.0112533 19.1718)
(0.35761 0.0144789 18.5317)
(0.34515 0.020489 18.0287)
(0.327394 0.0342853 17.6062)
(0.292677 0.0669142 16.8977)
(0.203116 0.105665 14.2933)
(0.389318 0.010488 22.076)
(0.395675 0.0177714 21.4656)
(0.38859 0.0181415 20.6261)
(0.37863 0.0208349 19.9451)
(0.394468 0.00836968 22.5064)
(0.400486 0.0166142 22.1956)
(0.39896 0.02053 21.5753)
(0.39173 0.0249835 20.897)
(0.399447 0.00664118 22.8313)
(0.404148 0.0156437 22.711)
(0.405491 0.021619 22.277)
(0.401921 0.0275561 21.6932)
(0.365699 0.0245514 20.2461)
(0.347133 0.0106423 17.42)
(0.333502 0.0900752 18.3353)
(0.36478 0.0921308 19.2511)
(0.276569 0.0161113 14.6828)
(0.32898 0.0312709 17.6002)
(0.295178 0.0608157 16.8572)
(0.205951 0.0974438 14.3026)
(0.368981 0.025076 19.456)
(0.353103 0.0444979 18.9792)
(0.3361 0.0829924 18.3539)
(0.302355 0.13272 16.9252)
(0.36654 0.0934863 19.266)
(0.360152 0.130286 18.3736)
(0.402536 0.163766 16.6171)
(0.411686 0.119814 19.4141)
(0.45055 0.119448 18.5107)
(0.473457 0.0914706 19.6422)
(0.364068 0.02541 20.2377)
(0.345764 0.0154333 17.3588)
(0.323839 0.0071819 16.5093)
(0.317369 0.0117565 16.042)
(0.292153 0.0141218 14.8765)
(0.28114 0.0204589 14.651)
(0.375417 0.0179452 21.4322)
(0.385265 0.0243481 20.232)
(0.372455 0.0164243 19.1838)
(0.360869 0.0168916 18.5127)
(0.34664 0.018361 18.0137)
(0.342343 0.0275607 17.5906)
(0.308195 0.0329387 16.5577)
(0.168879 0.120822 14.1553)
(0.391479 0.00864987 22.0445)
(0.398488 0.0162276 21.3905)
(0.388115 0.0187718 20.5408)
(0.377319 0.0232945 19.8722)
(0.366908 0.0320843 19.3642)
(0.352174 0.0487373 18.8802)
(0.329336 0.0841921 18.2074)
(0.315667 0.0864812 16.6279)
(0.396304 0.00539552 22.4893)
(0.403379 0.0113144 22.1483)
(0.399435 0.0153816 21.5164)
(0.390981 0.0213522 20.8387)
(0.382079 0.0315388 20.2661)
(0.37172 0.0504826 19.7502)
(0.3615 0.0904361 19.1813)
(0.362347 0.105737 18.2354)
(0.396469 0.16106 16.5993)
(0.354661 0.0516909 14.0726)
(0.400741 0.00418743 22.8186)
(0.406425 0.0104831 22.6805)
(0.406439 0.0158485 22.237)
(0.401897 0.0227121 21.6487)
(0.395364 0.0337489 21.0494)
(0.389396 0.0527979 20.499)
(0.390291 0.0863311 19.9532)
(0.407751 0.123179 19.3281)
(0.448632 0.118351 18.4989)
(0.449653 0.065594 17.6191)
(0.473128 0.0960887 19.5632)
(0.481228 0.0587572 19.055)
(0.306922 0.0215301 16.5936)
(0.272425 0.0366693 16.2398)
(0.259149 0.0210638 14.5247)
(0.264327 0.0235359 13.8668)
(0.29159 0.0379519 16.6356)
(0.286684 0.0533835 16.1648)
(0.26208 0.0642809 15.8575)
(0.250577 0.0503334 14.091)
(0.268749 0.0522695 16.0945)
(0.17554 0.0622354 13.8926)
(0.180595 0.121285 13.01)
(0.177211 0.0875892 12.6847)
(0.239043 0.124977 15.738)
(0.20103 0.126923 13.8931)
(0.237187 0.124299 15.3232)
(0.243616 0.176744 12.4669)
(0.331342 0.130604 17.5007)
(0.34896 0.179774 16.5771)
(0.291265 0.177499 16.7281)
(0.313993 0.184355 13.8215)
(0.326625 0.160651 17.6213)
(0.342808 0.181903 16.6114)
(0.355484 0.186913 15.3213)
(0.358694 0.0251682 12.7557)
(0.396956 0.20515 15.5746)
(0.43208 0.0583175 16.4834)
(0.413536 0.0532408 16.0169)
(0.357401 0.0624064 13.9874)
(0.423828 0.0654573 16.5016)
(0.431709 0.0523786 16.3161)
(0.362494 0.0178047 19.1671)
(0.316895 -0.00272924 15.5268)
(0.352323 0.0251953 19.3582)
(0.322474 0.0182003 16.2234)
(0.305098 -0.00147825 15.2734)
(0.303928 0.00693854 14.6863)
(0.318867 0.0171715 15.9063)
(0.300121 0.0077097 15.3005)
(0.280401 -0.0426127 14.5479)
(0.282375 0.00468581 14.201)
(0.292626 0.00975646 15.1641)
(0.296327 0.0117287 15.0004)
(0.275197 -0.00916426 14.1168)
(0.27847 -0.003559 14.189)
(0.296268 0.0180989 14.98)
(0.27737 0.00350747 14.0216)
(0.269286 0.0024229 14.0676)
(0.330764 0.00942115 17.0837)
(0.320608 0.0169766 16.8302)
(0.286448 0.015087 14.8025)
(0.274794 0.014166 14.668)
(0.325358 0.0212949 17.0551)
(0.315579 0.0270731 16.8634)
(0.27236 0.0243987 15.3401)
(0.233675 0.0373187 13.5347)
(0.284896 0.00849691 15.367)
(0.255293 0.023661 14.0673)
(0.237607 0.0292683 13.9168)
(0.288845 0.0259103 15.482)
(0.262314 0.012746 15.1965)
(0.0633132 -0.027749 12.024)
(0.228393 0.108745 14.3161)
(0.261759 -0.145058 12.8534)
(0.28902 0.101017 12.7334)
(0.247485 0.10811 15.3254)
(0.30767 0.0540689 17.3776)
(0.285926 0.0757953 16.5771)
(0.278906 0.0849995 16.6977)
(0.234089 0.0937824 15.6801)
(0.300675 0.0922081 17.486)
(0.267544 0.13498 16.7563)
(0.252561 0.0960783 12.8026)
(0.220906 0.115541 14.8326)
(0.246273 0.179399 13.2609)
(0.254494 0.0984552 10.9923)
(0.268281 0.116024 14.5506)
(0.176407 0.12403 13.8876)
(0.297527 0.166036 13.3291)
(0.240964 0.202858 13.175)
(0.364881 0.0903153 13.6419)
(0.4389 0.134084 17.6309)
(0.439666 0.0907103 17.0211)
(0.410135 0.176572 16.5789)
(0.383384 0.0623469 14.2504)
(0.446248 0.134172 17.7258)
(0.447096 0.0930686 17.0014)
(0.363873 0.0351622 14.8405)
(0.349918 0.0977739 12.4492)
(0.376315 0.0441742 15.0384)
(0.330192 0.0432851 13.5092)
(0.302534 0.000459422 13.0379)
(0.38141 0.0537348 15.1511)
(0.387961 0.0613684 14.6074)
(0.221711 0.0582182 13.6315)
(0.326979 0.0224724 16.6939)
(0.30857 0.0145262 16.2118)
(0.268931 -0.0313884 13.8725)
(0.309209 0.0171963 16.5462)
(0.257239 0.0496702 16.276)
(0.28636 0.0699663 16.1389)
(0.196189 0.101479 14.1246)
(0.271554 0.109879 15.9302)
(0.214935 0.0507345 14.1036)
(0.158931 0.118634 12.9009)
(0.205954 0.0235591 12.8929)
(0.276649 0.0845985 15.383)
(0.194378 0.0704429 13.8245)
(0.240276 0.118102 15.7442)
(0.261024 0.171351 13.7601)
(0.34156 0.0992251 17.5567)
(0.317641 0.14072 16.5445)
(0.302052 0.128683 16.7133)
(0.229122 0.170013 12.4978)
(0.333075 0.14106 17.6035)
(0.344748 0.158205 16.5854)
(0.370455 0.178821 15.6691)
(0.367529 0.184811 15.4818)
(0.358888 0.0285244 12.864)
(0.425047 0.0588966 16.545)
(0.427508 0.0553744 16.316)
(0.327589 0.027333 13.2693)
(0.43501 0.056636 16.3975)
(0.40537 0.0610457 16.0632)
(0.273236 0.0618826 14.9449)
(0.246623 0.0401909 12.7747)
(0.188904 0.052423 14.7178)
(0.328173 0.229996 12.2393)
(0.222556 0.0421482 13.5748)
(0.386884 0.105548 14.0984)
(0.273376 0.0391018 14.9744)
(0.0942522 0.235301 11.023)
(0.120082 -0.0454702 12.1198)
(0.2 0.146462 13.0711)
(0.116882 0.0449562 11.8872)
(0.208532 0.0807921 14.9821)
(0.172986 0.0668883 13.2822)
(0.176017 0.15445 11.4953)
(0.217264 0.0894669 14.5571)
(0.179497 0.0688285 13.6575)
(0.132296 0.0655738 11.1855)
(0.239753 0.133854 12.9886)
(0.0625419 0.133538 11.6561)
(0.223144 0.134595 13.9528)
(0.25154 0.211061 13.0788)
(0.271831 0.1942 12.7399)
(0.293553 0.162514 15.7705)
(0.249444 0.134528 14.8104)
(0.305498 0.176764 14.6939)
(0.289705 0.140912 13.0131)
(0.273537 0.189695 14.4882)
(0.273663 0.116717 14.4883)
(0.295586 0.151634 15.8799)
(0.322727 0.168735 14.2494)
(0.397305 0.15064 14.3345)
(0.365291 0.18976 15.3345)
(0.3276 0.189946 14.2739)
(0.41335 0.107896 14.3151)
(0.374826 0.0290197 13.0611)
(0.349824 0.135424 13.0285)
(0.365754 0.0958883 14.1079)
(0.276351 0.19143 12.6365)
(0.347246 0.0480044 14.281)
(0.344399 -0.00821552 17.253)
(0.376807 0.0197628 20.896)
(0.381163 0.0205358 19.8784)
(0.363613 0.0234918 20.2227)
(0.348689 0.0121651 17.6607)
(0.374229 0.0178696 20.9314)
(0.377219 0.0181465 19.9965)
(0.328486 -0.00317503 16.2334)
(0.371791 0.0180145 19.0004)
(0.361752 0.0129313 18.4282)
(0.343666 0.00932776 17.3212)
(0.328374 -0.000828597 16.6002)
(0.371505 0.0138085 19.1386)
(0.363604 0.00729361 18.5537)
(0.311422 0.00476767 15.5812)
(0.349428 0.0150885 18.0615)
(0.343968 0.0155603 17.7541)
(0.321197 0.00220794 16.4722)
(0.319365 0.00823868 16.1383)
(0.353405 0.00863607 18.1904)
(0.3503 0.00888206 17.8845)
(0.287953 0.032027 14.6917)
(0.342656 0.00606874 17.542)
(0.334331 0.0175937 17.3568)
(0.315088 0.0113164 16.0154)
(0.288238 0.0122403 14.982)
(0.341786 0.0187726 17.6006)
(0.336612 0.0150802 17.2938)
(0.250974 0.0302638 14.101)
(0.246017 0.0474479 13.7571)
(0.25971 0.00304481 14.0033)
(0.234568 0.00142914 13.6268)
(0.23805 0.0231893 13.6792)
(0.250722 0.0010603 14.085)
(0.257827 0.0255599 14.0059)
(0.224442 0.118326 13.1911)
(0.36455 -0.0388431 12.2869)
(0.362262 0.154198 17.4973)
(0.376183 0.12287 18.7578)
(0.390214 0.141043 18.2233)
(0.352536 0.151693 18.2916)
(0.373868 0.181965 17.5907)
(0.374698 0.140126 18.8249)
(0.395883 0.156408 18.3126)
(0.443649 0.0598773 17.1303)
(0.465953 0.0708254 18.2902)
(0.465288 0.0502295 17.9964)
(0.451747 0.0648132 17.592)
(0.449449 0.0550211 17.247)
(0.466802 0.0685011 18.3511)
(0.468508 0.0512617 18.0738)
(0.352916 0.0281488 19.3799)
(0.327183 0.0153791 16.4398)
(0.36353 0.02095 19.2127)
(0.319398 -0.0788511 15.4241)
(0.323739 0.013984 16.1217)
(0.310634 0.00316725 15.5116)
(0.300929 -0.0738957 15.1404)
(0.307472 -0.060589 14.5828)
(0.301086 0.00580791 15.3655)
(0.30092 0.0106579 15.071)
(0.278107 -0.128915 14.4522)
(0.278646 -0.00139523 14.1856)
(0.296911 0.0110582 14.98)
(0.274125 -0.00701103 14.0621)
(0.280089 0.00714915 14.1928)
(0.27802 0.0169437 14.0126)
(0.2828 0.0164791 14.7305)
(0.33089 0.0169967 17.0629)
(0.32473 0.0169145 16.9102)
(0.285691 0.0323666 14.4613)
(0.279208 0.00915165 14.1522)
(0.332161 0.0133319 17.0592)
(0.322963 0.0131323 16.8296)
(0.272345 0.0212287 15.7088)
(0.323615 0.0237544 17.4304)
(0.302536 0.0245301 16.6608)
(0.29458 0.0802452 16.6618)
(0.214924 0.126431 15.3324)
(0.311371 0.0788672 17.4868)
(0.291376 0.0928706 16.738)
(0.375708 0.0632657 14.3255)
(0.434738 0.124177 17.7437)
(0.443904 0.086332 17.1126)
(0.392292 0.167022 16.3934)
(0.372323 0.0869686 13.6367)
(0.441176 0.132468 17.6249)
(0.439589 0.0968709 17.0568)
(0.237884 -0.0530056 12.7578)
(0.199932 -0.0461381 13.0649)
(0.41442 -0.00732854 12.5704)
(0.1816 -0.0991567 12.619)
(0.198954 0.0914469 14.0864)
(0.240494 0.0537829 15.0047)
(0.251018 0.0550899 15.4082)
(0.277782 0.0122759 15.742)
(0.254694 -0.0341504 14.7872)
(0.245198 0.0933535 15.1996)
(0.234364 -0.0010573 14.3375)
(0.12219 0.0799153 10.6371)
(0.155476 0.123759 11.9583)
(0.149861 0.14303 12.0818)
(0.25609 0.0099931 12.7065)
(0.169486 0.0444408 11.2637)
(0.257529 -0.0457849 11.5537)
(0.125453 0.0990156 11.6817)
(0.176219 0.0129123 14.2314)
(0.223813 0.146001 15.3982)
(0.26962 0.172165 15.3442)
(0.262779 0.12766 15.752)
(0.265753 0.10142 15.2324)
(0.235146 0.0873831 15.1236)
(0.269916 0.145305 14.8038)
(0.341798 0.206321 13.0433)
(0.266384 0.217289 12.4895)
(0.257113 0.173478 13.8257)
(0.272601 0.247238 13.3544)
(0.22871 0.15753 12.9534)
(0.237253 0.17123 12.3289)
(0.243871 0.133993 12.9946)
(0.26623 0.207573 13.095)
(0.26737 0.216344 13.7063)
(0.319164 0.15692 16.4551)
(0.344142 0.161288 16.2694)
(0.338798 0.154452 16.676)
(0.343869 0.164114 16.5664)
(0.323929 0.139416 16.0693)
(0.329648 0.155618 16.7868)
(0.328467 0.155864 16.538)
(0.370388 0.0503872 13.1326)
(0.349119 0.0210943 12.3206)
(0.377111 0.0557473 12.6625)
(0.35239 0.0648525 12.1924)
(0.34269 0.0472237 12.5841)
(0.393282 0.0857822 15.4955)
(0.417829 0.0423607 16.2289)
(0.423572 0.0752786 16.0967)
(0.416964 0.0787228 16.294)
(0.39696 0.032566 15.3969)
(0.355437 0.00043306 17.1878)
(0.352263 0.0296179 19.2164)
(0.347535 0.0142637 17.4122)
(0.334689 -0.0158869 16.1779)
(0.317336 0.0189086 15.7061)
(0.321194 0.0103246 16.2682)
(0.300227 -0.000606345 15.0232)
(0.314355 0.0162402 15.3939)
(0.311143 0.0106192 15.1553)
(0.297194 0.00148226 14.8852)
(0.278044 -0.0030174 14.8276)
(0.304946 0.000383664 14.9946)
(0.255569 0.00439001 14.4721)
(0.277157 0.0394757 14.666)
(0.295459 0.0183914 14.5937)
(0.261032 0.0256075 14.4631)
(0.282193 0.00334684 14.5031)
(0.288266 0.00733683 14.5649)
(0.268324 -0.00847342 13.8909)
(0.283845 0.0195326 14.5312)
(0.283335 0.0239918 14.3376)
(0.250415 -0.00924049 13.4752)
(0.291379 0.0391046 13.7952)
(0.270535 0.00464225 13.588)
(0.295027 0.000364837 15.4884)
(0.273217 0.0138643 14.284)
(0.294735 0.0217591 15.6111)
(0.294295 0.0229421 15.6906)
(0.273481 0.0215129 14.117)
(0.264663 0.017895 14.314)
(0.299137 0.00364246 15.6072)
(0.235005 0.0214319 13.9832)
(0.231984 0.0491292 13.6057)
(0.225978 0.0147771 13.434)
(0.230735 0.0211601 13.8131)
(0.231867 0.020514 13.5376)
(0.231559 0.0134746 13.9291)
(0.230384 0.0242485 13.8582)
(0.147292 -0.181289 12.5221)
(0.202534 0.158233 13.361)
(0.31621 0.00765099 14.0596)
(0.192734 0.133831 14.0096)
(0.351018 -0.00165688 12.8896)
(0.159189 -0.0916028 13.767)
(0.148018 0.128388 13.2885)
(-0.00042769 -0.0122189 11.8658)
(0.199664 -0.0110555 12.6458)
(0.283992 0.142951 12.5856)
(0.281389 0.0972803 12.917)
(0.0911849 0.0885662 11.4152)
(0.121803 -0.105285 12.7739)
(0.256306 0.123365 12.7564)
(0.1576 0.0806099 12.6568)
(0.157643 0.155536 12.1168)
(0.123443 0.0655461 12.2599)
(0.183214 0.124013 11.2933)
(0.124721 0.123064 11.9369)
(0.129415 0.132561 12.638)
(0.187554 0.0961047 13.5918)
(0.206506 0.0621909 13.6061)
(0.168893 0.1038 13.5202)
(0.183801 0.114818 13.8216)
(0.190801 0.13236 13.1772)
(0.211611 0.114519 13.9873)
(0.168237 0.110191 13.6174)
(0.291013 0.185665 12.6954)
(0.310937 0.162348 13.4723)
(0.262048 0.127773 12.6849)
(0.280046 0.149748 12.6751)
(0.28192 0.178557 12.6729)
(0.388119 0.0755061 14.5782)
(0.403163 0.04789 15.3915)
(0.377088 0.0384069 13.8663)
(0.418186 0.0806497 14.5642)
(0.409371 0.0689481 15.4732)
(0.432309 0.104103 15.9544)
(0.430205 0.0810224 15.9009)
(0.346226 0.042997 13.2101)
(0.345263 0.113104 12.7026)
(0.323676 -0.00717375 12.2381)
(0.347934 0.09012 12.8072)
(0.34092 0.0535685 12.5973)
(0.330686 0.035705 12.9203)
(0.347514 0.0991239 13.0048)
(0.230134 -0.0353568 13.6808)
(0.292819 -0.000129776 15.3734)
(0.263702 0.00592154 15.1599)
(0.311622 0.0202085 15.3314)
(0.281708 0.0369415 14.4062)
(0.296507 0.032779 14.1606)
(0.303545 0.0332976 15.5641)
(0.236662 0.0244119 12.6964)
(0.168448 -0.0105586 14.4291)
(0.276265 0.0295981 14.8367)
(0.328068 0.00787436 14.9598)
(0.239668 -0.232352 12.2502)
(0.331562 -0.0254848 13.5439)
(0.207758 -0.129512 14.1737)
(0.225875 0.0539931 14.2421)
(0.327934 -0.0243113 12.5073)
(0.381712 0.0130877 11.9077)
(0.206083 0.0783045 12.4284)
(0.0902891 -0.124423 11.783)
(0.128189 -0.261164 9.74412)
(0.110102 0.0249425 11.6112)
(0.219748 0.0448329 14.7853)
(0.202164 0.0185113 13.6253)
(0.224096 -0.094896 13.1592)
(0.230635 -0.0410286 13.4028)
(0.134633 -0.000531461 10.7888)
(0.262482 -0.074386 14.6347)
(0.167175 0.0105092 10.7583)
(0.215223 0.16635 14.8839)
(0.20217 0.0638197 13.6019)
(0.167432 0.0742579 12.2295)
(0.187007 -0.0377173 13.3718)
(0.0997177 0.131827 11.0706)
(0.25011 0.0329211 14.6304)
(0.296634 0.164587 12.5861)
(0.245974 0.0612764 13.6067)
(0.312185 0.185406 12.3633)
(0.347705 0.0899488 11.1126)
(0.186689 -0.0504572 12.972)
(0.258665 0.181679 14.9804)
(0.290961 0.17585 14.5828)
(0.311241 0.186868 15.9305)
(0.295644 0.0555391 15.8744)
(0.19219 0.121021 13.0534)
(0.234375 -0.00222568 14.7485)
(0.27133 0.136808 14.55)
(0.318692 0.145241 13.2755)
(0.315125 0.121034 13.1078)
(0.342769 0.14157 14.222)
(0.399067 0.142157 14.311)
(0.35566 0.154871 15.3696)
(0.310354 0.157226 14.0417)
(0.404788 0.148127 14.2707)
(0.387971 0.00803161 12.9661)
(0.380127 -0.0229643 12.6869)
(0.35807 0.048081 12.6912)
(0.383139 0.053785 15.0546)
(0.399452 0.0799026 14.5668)
(0.415668 0.0408903 14.7803)
(0.329468 0.0579673 13.6723)
(0.391184 0.0471874 13.3599)
(0.384576 0.0474224 15.1836)
(0.344087 0.0252151 14.1268)
(0.36039 -0.0355108 14.145)
(0.341699 -0.149634 12.2733)
(0.240443 0.0265126 13.47)
(0.231113 0.0390598 12.7693)
(0.240477 -0.0152782 13.5496)
(0.236438 0.00450554 13.6755)
(0.242786 0.00149237 13.4162)
(0.146609 0.035123 11.7167)
(0.160055 0.0578822 11.5906)
(0.116911 -0.0453656 12.2802)
(0.130355 -0.0618426 12.1238)
(0.141331 0.0217819 11.9862)
(0.224356 0.03088 13.3564)
(0.163903 0.0447973 12.5487)
(0.130886 0.168425 11.8314)
(0.158016 0.0810361 11.9991)
(0.157825 0.0741923 11.9236)
(0.2217 0.0459295 12.2949)
(0.202569 0.0334179 13.3357)
(0.177011 0.0968874 11.9787)
(0.254278 0.0368191 11.1028)
(0.190621 0.0744167 11.7553)
(0.207933 0.251523 11.1622)
(0.216136 0.00620996 11.958)
(0.204169 0.109001 12.9277)
(0.268103 0.0745569 12.8913)
(0.162753 0.126615 12.4627)
(0.293481 0.207219 14.0707)
(0.335003 0.160171 14.4969)
(0.34624 0.180038 14.2708)
(0.309305 0.165974 13.8881)
(0.315086 0.195839 13.7099)
(0.355576 0.189992 14.6384)
(0.316288 0.181671 14.2837)
(0.317038 0.276059 13.1552)
(0.398784 0.139619 13.5815)
(0.341042 0.0175896 12.9788)
(0.381903 0.035964 13.1615)
(0.363751 0.0712381 12.2754)
(0.375485 0.0845658 12.6996)
(0.332805 0.05802 12.2166)
(0.350284 0.0498585 12.2645)
(0.298002 -0.0074502 12.3456)
(0.299671 -0.00370747 12.4024)
(0.296457 0.00162791 12.491)
(0.33207 -0.00350094 16.6106)
(0.342184 0.0114703 17.0339)
(0.337665 0.00738388 16.7153)
(0.352625 0.0157325 17.7026)
(0.355483 -0.00743397 17.9842)
(0.357519 0.0214062 18.0617)
(0.349251 -0.00775484 17.6169)
(0.298879 0.00125359 15.9688)
(0.314133 0.0223887 16.198)
(0.31238 0.0154018 16.0779)
(0.3275 0.0247495 16.9854)
(0.331516 -0.0205129 17.0651)
(0.333056 0.0215379 17.1334)
(0.320133 -0.000600767 16.9053)
(0.293279 0.014857 15.1088)
(0.30604 0.0143614 15.6306)
(0.304947 0.017268 15.4525)
(0.32707 0.0194783 16.4796)
(0.321862 0.000747196 16.4597)
(0.323394 0.0197782 16.621)
(0.316507 0.00192465 16.3009)
(0.298202 0.0147719 15.7898)
(0.282635 0.0337443 14.2582)
(0.306896 -0.00623317 15.8648)
(0.278745 -0.0059034 14.5042)
(0.26519 0.00327616 14.3826)
(0.305196 0.0126929 15.8922)
(0.302638 -0.00821367 15.7427)
(0.349346 0.0180427 17.7089)
(0.371692 0.0163482 20.9691)
(0.375661 0.0178349 20.0619)
(0.372254 0.0152732 20.1781)
(0.350707 -0.0415827 17.3204)
(0.379882 0.0112459 20.8921)
(0.384875 0.00821216 19.8477)
(0.331843 0.00547652 16.6511)
(0.374029 0.0115197 19.2036)
(0.367039 0.0048734 18.6196)
(0.337026 -0.0394151 16.9691)
(0.331525 -0.0350804 16.2866)
(0.371783 0.00700731 18.9675)
(0.361652 0.00371615 18.4003)
(0.320678 0.0107099 16.1624)
(0.356618 0.0045074 18.2434)
(0.351643 0.00991207 17.918)
(0.312994 -0.0643455 16.1557)
(0.305053 0.00843705 15.6094)
(0.348702 0.00248415 18.0334)
(0.341699 0.00744758 17.7286)
(0.296304 0.0135125 15.0548)
(0.347201 0.0165252 17.6337)
(0.340673 0.0122131 17.3947)
(0.29827 0.00584231 15.3697)
(0.289368 0.0270075 14.6313)
(0.336247 0.00448796 17.5371)
(0.333857 0.0279444 17.3819)
(0.304292 0.00767829 15.3053)
(0.304419 0.0454806 15.2694)
(0.317496 -0.0100621 15.5884)
(0.315211 0.0125906 15.5996)
(0.312178 0.00944598 15.7168)
(0.300078 0.0171114 15.1857)
(0.314003 0.035813 15.3769)
(0.292822 0.0187884 14.9117)
(0.309411 0.0516691 15.0107)
(0.304587 -0.00172899 15.2475)
(0.310553 0.0170178 15.4036)
(0.308369 0.0127584 15.3418)
(0.308879 0.0198651 14.9446)
(0.29355 0.0451391 14.989)
(0.300276 0.0110874 14.3971)
(0.28703 0.0486635 14.4377)
(0.304819 0.000287106 14.7203)
(0.291221 0.0205827 14.793)
(0.298663 0.00442275 14.8478)
(0.265604 0.0174434 14.366)
(0.306264 0.0386768 14.4645)
(0.277186 0.00400007 14.2008)
(0.278153 0.011185 14.2836)
(0.277994 -0.0366553 14.5306)
(0.274841 -0.00825609 14.6533)
(0.286453 -0.00246103 14.6216)
(0.26071 -0.00644728 14.2179)
(0.268161 0.0188346 14.2682)
(0.278611 -0.0209513 13.5419)
(0.280809 0.0138908 14.3467)
(0.292302 -0.0033596 14.2182)
(0.287031 0.00651966 14.3954)
(0.281996 0.0214956 13.6023)
(0.275159 -0.0111745 14.0844)
(0.28199 -0.0137087 14.1506)
(0.279941 -0.0130204 14.1219)
(0.275389 0.00135788 14.1023)
(0.27257 -0.00521778 13.8644)
(0.275132 -0.00738564 13.8114)
(0.271537 0.00131791 13.9949)
(0.268613 -0.00524843 13.6931)
(0.261177 -0.00662824 13.6512)
(0.359183 -0.00908699 17.8824)
(0.348553 0.0145578 17.3703)
(0.358365 0.0157582 18.03)
(0.373527 0.028024 19.1022)
(0.363363 -0.0121978 18.3259)
(0.365095 0.0236837 18.4344)
(0.376447 -0.00720319 19.0249)
(0.325651 -0.00750299 16.4264)
(0.320688 -0.000674367 16.3388)
(0.329542 -0.00219591 16.5348)
(0.346109 0.00761391 17.4968)
(0.343473 -0.00819038 17.1997)
(0.340791 0.0120673 17.2793)
(0.34414 -0.0111878 17.4226)
(0.309465 0.00310697 15.8504)
(0.310432 0.0134355 15.8106)
(0.312598 0.011471 15.9824)
(0.32784 0.0169188 16.8733)
(0.326787 -0.000393024 16.6014)
(0.324715 0.0219234 16.717)
(0.326278 0.00119652 16.7855)
(0.278454 0.0145747 14.8909)
(0.311054 -0.0126397 16.0224)
(0.290445 -0.00918949 14.6884)
(0.311953 0.00328422 15.0052)
(0.316419 0.00874485 16.0601)
(0.324419 0.0174082 16.2326)
(0.310069 0.000111723 16.1496)
(0.364093 0.00208802 17.3426)
(0.349265 0.0302407 19.3254)
(0.331036 0.0266944 17.7038)
(0.342787 -0.0415716 16.0433)
(0.324511 0.0401182 16.2878)
(0.318608 0.0398855 16.8223)
(0.296 -0.0688914 14.9077)
(0.320941 0.0395637 15.9583)
(0.316597 0.0393039 15.7042)
(0.292448 -0.0633247 14.745)
(0.313426 0.0325716 15.3449)
(0.316854 0.0366574 15.528)
(0.246025 -0.065312 14.331)
(0.303852 0.0270022 15.1992)
(0.308849 0.0330933 15.0368)
(0.252635 -0.0334968 14.2888)
(0.304853 -0.0161311 14.3981)
(0.313634 0.0263676 14.823)
(0.266216 -0.0046607 13.8222)
(0.284193 -0.0301574 14.3389)
(0.278592 -0.0344392 14.1433)
(0.251503 -0.0130308 13.3904)
(0.257013 -0.0302271 13.4643)
(0.275566 0.00646415 13.6549)
(0.296799 0.0203325 15.7439)
(0.331425 0.0150835 16.1088)
(0.321052 -0.00255509 16.2731)
(0.31725 0.0143474 15.8733)
(0.32167 0.0268801 16.156)
(0.307263 -0.00668532 15.7616)
(0.31151 0.0486177 15.8512)
(0.3058 0.019019 14.7157)
(0.300339 -0.000291755 15.042)
(0.30567 0.0110575 15.1259)
(0.289835 0.0443064 14.7672)
(0.307431 0.0150896 15.1701)
(0.29039 0.0171652 14.6923)
(0.305011 0.0507577 14.7824)
(0.283174 0.0107788 14.5401)
(0.29678 -0.000134424 14.8671)
(0.304583 0.0123729 15.012)
(0.302079 0.0481684 14.627)
(0.298524 0.00681446 14.9748)
(0.305004 0.0147547 14.5593)
(0.287496 0.0373096 14.6144)
(0.284582 0.0222422 14.1419)
(0.255599 0.00942228 14.4572)
(0.277923 0.00784702 14.5909)
(0.250866 0.0409284 14.2194)
(0.278762 0.0265163 14.58)
(0.266681 0.0154819 14.1496)
(0.264648 0.0536784 14.207)
(0.283564 -0.000716067 14.0446)
(0.264748 0.0190669 14.4462)
(0.284036 0.0188064 14.5907)
(0.267818 0.0516215 14.2034)
(0.285496 0.000201587 14.57)
(0.286238 0.0131436 14.1234)
(0.267702 0.0378925 14.1574)
(0.272598 -0.00971295 13.9343)
(0.270664 -0.0121035 13.9178)
(0.270491 -0.0118261 13.9836)
(0.245306 -0.0144868 13.7037)
(0.258752 -0.0159422 13.5666)
(0.275625 0.0198337 13.5098)
(0.270104 0.00285675 13.8867)
(0.256491 -0.00456496 13.2834)
(0.255876 -0.00691572 13.5233)
(0.352821 0.0266573 19.3766)
(0.323585 0.0204158 16.3011)
(0.353972 0.027485 19.3941)
(0.325401 0.018609 16.3756)
(0.350909 0.0260235 19.3011)
(0.346483 0.0155636 17.7583)
(0.34676 0.0125146 17.6361)
(0.349025 0.013586 17.7014)
(0.374361 0.017024 20.9494)
(0.377656 0.0185794 20.0336)
(0.364809 0.0256208 20.2367)
(0.350017 0.0141804 17.7344)
(0.374664 0.0179099 20.9511)
(0.378121 0.0199035 20.0356)
(0.346004 0.0188642 17.7995)
(0.353329 0.027584 19.3861)
(0.346375 0.0198705 17.8198)
(0.354115 0.0275084 19.396)
(0.325769 0.0181253 16.3886)
(0.354435 0.0273563 19.4007)
(0.327041 0.0154251 16.4165)
(0.353733 0.0274556 19.3911)
(0.346909 0.0192587 17.8375)
(0.346719 0.0195761 17.8301)
(0.350191 0.0138867 17.7401)
(0.3747 0.017898 20.951)