# vtk DataFile Version 2.0
sampleSurface
ASCII
DATASET POLYDATA
POINTS 3098 float
0.746192 0 -5.00894e-05 -6.50534 1.11022e-16 -4.7391e-05 0.739507 0 7.49995 7.99812 0
1.94289e-05 -6.5124 -1.11022e-16 7.49992 7.99235 -1.11022e-16 7.50019 -13.7546 0 -1.50031e-05
0.734852 -1.11022e-16 14.9998 15.2496 -1.11022e-16 6.60617e-05 -13.7602 0 7.49982 -6.51784
-1.11022e-16 14.9998 15.2414 -1.11022e-16 7.50009 7.98685 0 14.9998 -13.7648 0
14.9999 -20.9938 0 4.36099e-06 15.2348 -1.11022e-16 14.9998 -20.9936 2.22045e-16 7.49977
22.5022 0 1.49541e-05 0.735071 0 22.4998 -6.51815 -1.11022e-16 22.4999 22.4915
0 7.49989 7.98745 -1.11022e-16 22.4998 -20.9933 -1.11022e-16 14.9999 -13.7652 1.11022e-16
22.4999 22.4829 -1.11022e-16 14.9998 15.2356 0 22.4998 -28.2515 0 2.62893e-05
-28.2534 0 7.50012 29.7556 -1.11022e-16 -4.54549e-05 0.735819 1.11022e-16 29.9999 29.7426
0 7.4992 -6.51767 0 29.9999 -20.9933 -1.11022e-16 22.5 7.98856 0
29.9999 22.4839 1.11022e-16 22.4999 -28.255 0 15 -13.7649 0 30
29.7256 0 14.9997 15.237 0 29.9999 -35.5072 -1.11022e-16 5.90779e-05 -28.2551
0 22.5 -35.5123 1.11022e-16 7.50007 -20.993 1.11022e-16 30 36.9932 0
-7.53554e-05 29.7252 1.11022e-16 22.4999 22.4857 -1.11022e-16 29.9999 0.736256 -1.11022e-16 37.5
37.0663 -1.11022e-16 7.5 -6.5174 0 37.5 7.98913 1.11022e-16 37.5 -35.5169
-2.22045e-16 15 36.9578 0 14.9999 -13.7648 0 37.5 15.2378 0
37.5 -28.255 0 30 -35.5174 0 22.5 29.7273 -1.11022e-16 30
-42.7594 0 0.000106246 -20.9929 1.11022e-16 37.5 36.9398 -3.33067e-16 22.4999 -42.765
0 7.50013 22.4866 -1.11022e-16 37.5 44.3067 1.11022e-16 -0.000173064 44.3156 -5.55112e-17
3.74923 44.3638 -1.11022e-16 7.50044 0.736588 -1.11022e-16 45 -42.7692 2.22045e-16 15.0001
-6.51713 0 45 7.98959 0 45 -35.5174 0 30 44.2537
1.11022e-16 14.9995 -28.2549 0 37.5 -13.7646 -2.22045e-16 45 15.2384 1.11022e-16
45 36.9405 0 30 29.7284 0 37.5 47.8983 5.55112e-17 -0.000231375
47.9106 0 3.74943 -42.7696 1.11022e-16 22.5 48.0131 0 7.50081 44.229
-2.22045e-16 22.4999 -20.9927 -1.11022e-16 45 -50 -1.11022e-16 0.000116555 22.4873 -1.11022e-16
45 -50 -1.11022e-16 7.50012 51.4805 0 -0.000354952 -35.5173 1.11022e-16 37.5
51.6484 5.55112e-17 3.75115 -50 -2.22045e-16 15.0001 51.6711 0 7.50084 -42.7696
0 30 0.736735 -1.11022e-16 52.5 36.9419 0 37.5 51.4953 -1.11022e-16
11.2492 -6.51706 0 52.5 7.98975 0 52.5 -28.2549 0 45
44.2289 -1.11022e-16 30 51.37 -5.55112e-17 14.9994 29.729 -1.11022e-16 45 -13.7646
0 52.5 51.3052 -2.1684e-19 18.7496 51.3048 -2.60209e-18 18.8318 15.2386 -2.22045e-16
52.5 51.3708 -2.38524e-18 18.7496 -50 1.11022e-16 22.5 54.9985 0 -0.00260162
55.0346 0 1.87535 55.1369 0 3.75138 55.3085 5.55112e-17 7.50038 51.2883
-5.55112e-17 22.4998 55.0461 -5.55112e-17 11.249 -20.9927 0 52.5 56.7456 0
0.0299735 56.7783 -2.77556e-17 1.87544 -42.7696 0 37.5 54.8698 0 14.9993
56.8619 2.77556e-17 3.75216 22.4876 1.11022e-16 52.5 -35.5173 -1.11022e-16 45 54.8229
0 17.1162 51.2808 6.93889e-18 26.2499 55.7413 -6.93889e-18 14.9994 54.8037 0
18.7496 44.2298 -1.11022e-16 37.5 36.9422 -2.22045e-16 45 -50 0 30
58.4645 0 -0.244693 58.5154 0 1.88535 58.9168 0 -0.257294 58.9375
1.38778e-17 1.84572 58.8346 1.38778e-17 4.04008 59.1468 -3.46945e-18 1.82581 59.2027 0
-0.270676 59.0815 0 3.9148 54.7907 0 22.4998 59.2532 0 -0.267831
59.2573 0 1.824 58.2324 -1.38778e-17 11.2624 59.254 0 3.02719 58.004
1.38778e-17 12.6256 59.2576 -3.46945e-18 3.82483 51.283 -6.245e-17 30 57.6498 2.77556e-17
14.9995 -28.2548 1.11022e-16 52.5 59.2774 -2.77556e-17 7.62697 58.8187 2.77556e-17 11.263
58.0011 -1.38778e-17 14.9995 0.736891 0 60 58.3071 0 14.9994 29.7293
1.11022e-16 52.5 59.2786 -2.77556e-17 11.2636 -6.5169 0 60 57.4289 2.77556e-17
18.7498 7.98997 -1.11022e-16 60 58.8533 5.55112e-17 14.9994 54.7868 1.249e-16 26.2499
58.0003 -1.38778e-17 18.7498 58.1668 0 18.7498 59.2769 -2.77556e-17 14.9994 51.2799
6.93889e-18 33.75 -13.7644 0 60 57.3667 0 22.4999 58.7945 0
18.7497 15.2389 1.11022e-16 60 -42.7696 -1.11022e-16 45 59.2786 -2.77556e-17 18.7497
57.9997 2.77556e-17 22.4999 58.1285 -6.245e-17 22.4999 54.7871 0 30 -50
0 37.5 58.7775 2.77556e-17 22.4999 57.3544 0 26.25 44.2301 -1.11022e-16
45 -35.5173 -2.22045e-16 52.5 59.2769 0 22.4998 51.283 -6.93889e-18 37.5
-20.9926 1.11022e-16 60 58.0001 0 26.25 58.1216 0 26.25 22.4878
1.11022e-16 60 36.9426 0 52.5 54.7861 -8.32667e-17 33.75 58.7756 0
26.25 57.3526 -1.66533e-16 30 59.2786 0 26.25 57.9997 -2.08167e-17 30
58.1203 2.08167e-17 30 51.28 0 41.25 58.7742 -5.55112e-17 30 -28.2547
0 60 54.7871 0 37.5 59.2769 0 30 57.3525 0
33.75 29.7295 0 60 58.0002 0 33.75 58.1205 -6.93889e-18 33.75
-50 0 45 0.736925 0 67.5 -42.7695 0 52.5 58.7752
-2.77556e-17 33.75 -6.5169 3.33067e-16 67.5 7.98998 -1.11022e-16 67.5 59.2786 2.77556e-17
33.75 51.2831 -3.46945e-17 45 57.3524 5.55112e-17 37.5 54.7862 1.38778e-17 41.25
44.2303 1.11022e-16 52.5 -13.7644 0 67.5 57.9998 0 37.5 58.1202
4.16334e-17 37.5 15.2389 -1.11022e-16 67.5 58.7741 0 37.5 -35.5171 1.11022e-16
60 59.2769 0 37.5 36.9425 0 60 57.3524 -5.55112e-17 41.25
-20.9926 -1.11022e-16 67.5 51.2801 -6.93889e-18 48.75 54.787 0 45 22.4878
2.22045e-16 67.5 58.0002 6.93889e-18 41.25 58.1204 0 41.25 58.7752 -2.77556e-17
41.25 59.2786 -2.77556e-17 41.25 -50 0 52.5 57.3524 0 45
-28.2547 1.11022e-16 67.5 54.7862 -2.77556e-17 48.75 51.2831 -6.245e-17 52.5 57.9998
6.93889e-18 45 58.1202 -6.93889e-18 45 -42.7695 -1.11022e-16 60 29.7296 0
67.5 58.7741 2.77556e-17 45 59.2769 0 45 44.2304 -2.22045e-16 60
0.737014 0 75 57.3524 0 48.75 -6.51679 -1.11022e-16 75 7.99012
-2.22045e-16 75 58.0002 -6.93889e-18 48.75 58.1204 0 48.75 54.787 -1.38778e-17
52.5 51.2801 0 56.25 -13.7644 0 75 -35.5171 -1.11022e-16 67.5
58.7752 2.77556e-17 48.75 15.239 0 75 59.2786 2.77556e-17 48.75 36.9428
2.22045e-16 67.5 57.3524 0 52.5 -20.9926 1.11022e-16 75 -50 -1.11022e-16
60 57.9998 6.93889e-18 52.5 22.4879 0 75 58.1202 -6.93889e-18 52.5
54.7862 -1.38778e-17 56.25 58.7741 2.77556e-17 52.5 51.2831 -1.38778e-17 60 59.2769
-2.77556e-17 52.5 -42.7695 0 67.5 -28.2547 1.11022e-16 75 57.3524 0
56.25 29.7296 0 75 44.2304 -1.11022e-16 67.5 58.0002 2.08167e-17 56.25
58.1204 6.93889e-18 56.25 54.7871 0 60 58.7752 2.77556e-17 56.25 59.2786
2.77556e-17 56.25 51.2801 0 63.75 0.737004 -1.11022e-16 82.5 -6.51683 0
82.5 7.99007 1.11022e-16 82.5 -35.5171 0 75 57.3524 0 60
57.9998 1.38778e-17 60 58.1202 4.85723e-17 60 36.9426 1.11022e-16 75 -13.7644
1.11022e-16 82.5 15.239 -2.22045e-16 82.5 58.7741 2.77556e-17 60 -50 2.22045e-16
67.5 54.7862 -2.77556e-17 63.75 59.2769 -2.77556e-17 60 51.2831 -6.245e-17 67.5
-20.9926 -1.11022e-16 82.5 22.4879 1.11022e-16 82.5 57.3524 0 63.75 58.0002
6.93889e-18 63.75 58.1204 6.93889e-18 63.75 -42.7695 0 75 58.7752 -2.77556e-17
63.75 54.787 0 67.5 59.2786 2.77556e-17 63.75 44.2304 0 75
-28.2547 -1.11022e-16 82.5 29.7297 0 82.5 51.2801 0 71.25 57.3524
0 67.5 57.9998 1.38778e-17 67.5 58.1202 4.85723e-17 67.5 58.7741 2.77556e-17
67.5 -35.5171 0 82.5 59.2769 -2.77556e-17 67.5 54.7862 -6.93889e-17 71.25
0.737067 -1.11022e-16 90 -50 -1.11022e-16 75 -6.51675 -1.11022e-16 90 7.99018
1.11022e-16 90 36.9429 2.22045e-16 82.5 51.2831 1.17961e-16 75 -13.7643 0
90 15.239 -1.11022e-16 90 57.3524 0 71.25 58.0002 6.93889e-18 71.25
58.1204 6.93889e-18 71.25 58.7752 -2.77556e-17 71.25 -20.9925 1.11022e-16 90 59.2786
2.77556e-17 71.25 22.488 1.11022e-16 90 54.7871 0 75 -42.7695 0
82.5 44.2305 0 82.5 51.2801 -6.93889e-18 78.75 -28.2547 -2.22045e-16 90
57.3524 0 75 29.7297 -1.11022e-16 90 57.9998 1.38778e-17 75 58.1202
4.85723e-17 75 58.7741 2.77556e-17 75 59.2769 -2.77556e-17 75 54.7862 0
78.75 -50 0 82.5 -35.5171 1.11022e-16 90 51.2831 -1.80411e-16 82.5
36.9427 1.11022e-16 90 57.3524 0 78.75 0.737038 0 97.5 -6.5168
0 97.5 58.0002 6.93889e-18 78.75 7.9901 -1.11022e-16 97.5 58.1204 6.93889e-18
78.75 58.7752 -2.77556e-17 78.75 -13.7644 2.22045e-16 97.5 59.2786 2.77556e-17 78.75
15.239 0 97.5 54.787 -1.38778e-17 82.5 -42.7695 -1.11022e-16 90 -20.9926
-1.11022e-16 97.5 22.4879 0 97.5 44.2304 1.11022e-16 90 51.2801 0
86.25 57.3524 0 82.5 57.9998 -6.93889e-18 82.5 58.1202 4.85723e-17 82.5
58.7741 2.77556e-17 82.5 -28.2547 0 97.5 59.2769 -2.77556e-17 82.5 29.7297
1.11022e-16 97.5 54.7862 1.38778e-17 86.25 -50 0 90 57.3524 0
86.25 51.2831 -6.93889e-18 90 -35.5171 -1.11022e-16 97.5 58.0002 1.38778e-17 86.25
58.1204 6.93889e-18 86.25 36.9429 2.22045e-16 97.5 58.7752 -2.77556e-17 86.25 59.2786
2.77556e-17 86.25 0.73709 -1.11022e-16 105 -6.51673 0 105 7.9902 -1.11022e-16
105 54.7871 0 90 -13.7643 0 105 15.239 1.11022e-16 105
-42.7695 -1.11022e-16 97.5 57.3524 0 90 51.2801 0 93.75 44.2305
1.11022e-16 97.5 57.9998 1.38778e-17 90 -20.9925 2.22045e-16 105 58.1202 4.85723e-17
90 22.4881 0 105 58.7741 2.77556e-17 90 59.2769 -2.77556e-17 90
54.7862 0 93.75 -28.2547 0 105 29.7297 0 105 -50
-1.11022e-16 97.5 57.3524 0 93.75 51.2831 -1.04083e-16 97.5 58.0002 6.93889e-18
93.75 58.1204 6.93889e-18 93.75 58.7752 -2.77556e-17 93.75 -35.5171 0 105
59.2786 2.77556e-17 93.75 36.9427 -1.11022e-16 105 54.787 1.38778e-17 97.5 0.737054
-1.11022e-16 112.5 -6.51679 2.22045e-16 112.5 7.99012 -1.11022e-16 112.5 57.3524 0
97.5 -13.7644 0 112.5 -42.7695 0 105 57.9998 1.38778e-17 97.5
51.2801 -6.93889e-18 101.25 58.1202 4.85723e-17 97.5 15.239 -1.11022e-16 112.5 58.7741
2.77556e-17 97.5 44.2305 1.11022e-16 105 59.2769 -2.77556e-17 97.5 -20.9926 1.11022e-16
112.5 22.4879 -1.11022e-16 112.5 54.7862 0 101.25 -28.2547 0 112.5
-50 2.22045e-16 105 29.7297 0 112.5 57.3524 0 101.25 58.0002
1.38778e-17 101.25 58.1204 6.93889e-18 101.25 51.2831 2.08167e-17 105 58.7752 -2.77556e-17
101.25 59.2786 2.77556e-17 101.25 -35.5171 -2.22045e-16 112.5 36.9429 1.11022e-16 112.5
54.7871 0 105 57.3524 0 105 57.9998 1.38778e-17 105 0.737101
-1.11022e-16 120 58.1202 4.85723e-17 105 -6.51672 0 120 51.2801 6.93889e-18
108.75 7.99022 -1.11022e-16 120 58.7741 2.77556e-17 105 -42.7695 0 112.5
59.2769 -2.77556e-17 105 -13.7643 -1.11022e-16 120 44.2305 0 112.5 15.239
-1.11022e-16 120 54.7862 -2.77556e-17 108.75 -20.9925 0 120 22.4881 0
120 57.3524 0 108.75 -50 0 112.5 58.0002 6.93889e-18 108.75
[...]
POINT_DATA 3098
FIELD attributes 2
p 1 3098 float
0 0 0 0 0 0 0 0 0 0 0
0 0 0 0 0 0 0 0 0 0
0 0 0 0 0 0 0 0 0 0
0 0 0 0 0 0 0 0 0 0
0 0 0 0 0 0 0 0 0 0
0 0 0 0 0 0 0 0 0 0
0 0 0 0 0 0 0 0 0 0
0 0 0 0 0 0 0 0 0 0
0 0 0 0 0 0 0 0 0 0
0 0 0 0 0 0 0 0 0 0
0 0 0 0 0 0 0 0 0 0
0 0 0 0 0 0 0 0 0 0
0 0 0 0 0 0 0 0 0 0
0 0 0 0 0 0 0 0 0 0
0 0 0 0 0 0 0 0 0 0
0 0 0 0 0 0 0 0 0 0
0 0 0 0 0 0 0 0 0 0
0 0 0 0 0 0 0 0 0 0
0 0 0 0 0 0 0 0 0 0
0 0 0 0 0 0 0 0 0 0
0 0 0 0 0 0 0 0 0 0
0 0 0 0 0 0 0 0 0 0
0 0 0 0 0 0 0 0 0 0
0 0 0 0 0 0 0 0 0 0
0 0 0 0 0 0 0 0 0 0
0 0 0 0 0 0 0 0 0 0
0 0 0 0 0 0 0 0 0 0
0 0 0 0 0 0 0 0 0 0
0 0 0 0 0 0 0 0 0 0
0 0 0 0 0 0 0 0 0 0
0 0 0 0 0 0 0 0 0 0
0 0 0 0 0 0 0 0 0 0
0 0 0 0 0 0 0 0 0 0
0 0 0 0 0 0 0 0 0 0
0 0 0 0 0 0 0 0 0 0
0 0 0 0 0 0 0 0 0 0
0 0 0 0 0 0 0 0 0 0
0 0 0 0 0 0 0 0 0 0
0 0 0 0 0 0 0 0 0 0
0 0 0 0 0 0 0 0 0 0
0 0 0 0 0 0 0 0 0 0
0 0 0 0 0 0 0 0 0 0
0 0 0 0 0 0 0 0 0 0
0 0 0 0 0 0 0 0 0 0
0 0 0 0 0 0 0 0 0 0
0 0 0 0 0 0 0 0 0 0
0 0 0 0 0 0 0 0 0 0
0 0 0 0 0 0 0 0 0 0
0 0 0 0 0 0 0 0 0 0
0 0 0 0 0 0 0 0 0 0
0 0 0 0 0 0 0 0 0 0
0 0 0 0 0 0 0 0 0 0
0 0 0 0 0 0 0 0 0 0
0 0 0 0 0 0 0 0 0 0
0 0 0 0 0 0 0 0 0 0
0 0 0 0 0 0 0 0 0 0
0 0 0 0 0 0 0 0 0 0
0 0 0 0 0 0 0 0 0 0
0 0 0 0 0 0 0 0 0 0
0 0 0 0 0 0 0 0 0 0
0 0 0 0 0 0 0 0 0 0
0 0 0 0 0 0 0 0 0 0
0 0 0 0 0 0 0 0 0 0
0 0 0 0 0 0 0 0 0 0
0 0 0 0 0 0 0 0 0 0
0 0 0 0 0 0 0 0 0 0
0 0 0 0 0 0 0 0 0 0
0 0 0 0 0 0 0 0 0 0
0 0 0 0 0 0 0 0 0 0
0 0 0 0 0 0 0 0 0 0
0 0 0 0 0 0 0 0 0 0
0 0 0 0 0 0 0 0 0 0
0 0 0 0 0 0 0 0 0 0
0 0 0 0 0 0 0 0 0 0
0 0 0 0 0 0 0 0 0 0
0 0 0 0 0 0 0 0 0 0
0 0 0 0 0 0 0 0 0 0
0 0 0 0 0 0 0 0 0 0
0 0 0 0 0 0 0 0 0 0
0 0 0 0 0 0 0 0 0 0
0 0 0 0 0 0 0 0 0 0
0 0 0 0 0 0 0 0 0 0
0 0 0 0 0 0 0 0 0 0
0 0 0 0 0 0 0 0 0 0
0 0 0 0 0 0 0 0 0 0
0 0 0 0 0 0 0 0 0 0
0 0 0 0 0 0 0 0 0 0
0 0 0 0 0 0 0 0 0 0
0 0 0 0 0 0 0 0 0 0
0 0 0 0 0 0 0 0 0 0
0 0 0 0 0 0 0 0 0 0
0 0 0 0 0 0 0 0 0 0
0 0 0 0 0 0 0 0 0 0
0 0 0 0 0 0 0 0 0 0
0 0 0 0 0 0 0 0 0 0
0 0 0 0 0 0 0 0 0 0
0 0 0 0 0 0 0 0 0 0
0 0 0 0 0 0 0 0 0 0
0 0 0 0 0 0 0 0 0 0
0 0 0 0 0 0 0 0 0 0
0 0 0 0 0 0 0 0 0 0
0 0 0 0 0 0 0 0 0 0
0 0 0 0 0 0 0 0 0 0
0 0 0 0 0 0 0 0 0 0
0 0 0 0 0 0 0 0 0 0
0 0 0 0 0 0 0 0 0 0
0 0 0 0 0 0 0 0 0 0
0 0 0 0 0 0 0 0 0 0
0 0 0 0 0 0 0 0 0 0
0 0 0 0 0 0 0 0 0 0
0 0 0 0 0 0 0 0 0 0
0 0 0 0 0 0 0 0 0 0
0 0 0 0 0 0 0 0 0 0
0 0 0 0 0 0 0 0 0 0
0 0 0 0 0 0 0 0 0 0
0 0 0 0 0 0 0 0 0 0
0 0 0 0 0 0 0 0 0 0
0 0 0 0 0 0 0 0 0 0
0 0 0 0 0 0 0 0 0 0
0 0 0 0 0 0 0 0 0 0
0 0 0 0 0 0 0 0 0 0
0 0 0 0 0 0 0 0 0 0
0 0 0 0 0 0 0 0 0 0
0 0 0 0 0 0 0 0 0 0
0 0 0 0 0 0 0 0 0 0
0 0 0 0 0 0 0 0 0 0
0 0 0 0 0 0 0 0 0 0
0 0 0 0 0 0 0 0 0 0
0 0 0 0 0 0 0 0 0 0
0 0 0 0 0 0 0 0 0 0
0 0 0 0 0 0 0 0 0 0
0 0 0 0 0 0 0 0 0 0
0 0 0 0 0 0 0 0 0 0
0 0 0 0 0 0 0 0 0 0
0 0 0 0 0 0 0 0 0 0
0 0 0 0 0 0 0 0 0 0
0 0 0 0 0 0 0 0 0 0
0 0 0 0 0 0 0 0 0 0
0 0 0 0 0 0 0 0 0 0
0 0 0 0 0 0 0 0 0 0
0 0 0 0 0 0 0 0 0 0
0 0 0 0 0 0 0 0 0 0
0 0 0 0 0 0 0 0 0 0
0 0 0 0 0 0 0 0 0 0
0 0 0 0 0 0 0 0 0 0
0 0 0 0 0 0 0 0 0 0
0 0 0 0 0 0 0 0 0 0
0 0 0 0 0 0 0 0 0 0
0 0 0 0 0 0 0 0 0 0
0 0 0 0 0 0 0 0 0 0
0 0 0 0 0 0 0 0 0 0
0 0 0 0 0 0 0 0 0 0
0 0 0 0 0 0 0 0 0 0
0 0 0 0 0 0 0 0 0 0
0 0 0 0 0 0 0 0 0 0
0 0 0 0 0 0 0 0 0 0
0 0 0 0 0 0 0 0 0 0
0 0 0 0 0 0 0 0 0 0
0 0 0 0 0 0 0 0 0 0
0 0 0 0 0 0 0 0 0 0
0 0 0 0 0 0 0 0 0 0
0 0 0 0 0 0 0 0 0 0
0 0 0 0 0 0 0 0 0 0
0 0 0 0 0 0 0 0 0 0
0 0 0 0 0 0 0 0 0 0
0 0 0 0 0 0 0 0 0 0
0 0 0 0 0 0 0 0 0 0
0 0 0 0 0 0 0 0 0 0
0 0 0 0 0 0 0 0 0 0
0 0 0 0 0 0 0 0 0 0
0 0 0 0 0 0 0 0 0 0
0 0 0 0 0 0 0 0 0 0
0 0 0 0 0 0 0 0 0 0
0 0 0 0 0 0 0 0 0 0
0 0 0 0 0 0 0 0 0 0
0 0 0 0 0 0 0 0 0 0
0 0 0 0 0 0 0 0 0 0
0 0 0 0 0 0 0 0 0 0
0 0 0 0 0 0 0 0 0 0
0 0 0 0 0 0 0 0 0 0
0 0 0 0 0 0 0 0 0 0
0 0 0 0 0 0 0 0 0 0
0 0 0 0 0 0 0 0 0 0
0 0 0 0 0 0 0 0 0 0
0 0 0 0 0 0 0 0 0 0
0 0 0 0 0 0 0 0 0 0
0 0 0 0 0 0 0 0 0 0
0 0 0 0 0 0 0 0 0 0
0 0 0 0 0 0 0 0 0 0
0 0 0 0 0 0 0 0 0 0
0 0 0 0 0 0 0 0 0 0
0 0 0 0 0 0 0 0 0 0
0 0 0 0 0 0 0 0 0 0
0 0 0 0 0 0 0 0 0 0
0 0 0 0 0 0 0 0 0 0
0 0 0 0 0 0 0 0 0 0
0 0 0 0 0 0 0 0 0 0
0 0 0 0 0 0 0 0 0 0
0 0 0 0 0 0 0 0 0 0
0 0 0 0 0 0 0 0 0 0
0 0 0 0 0 0 0 0 0 0
0 0 0 0 0 0 0 0 0 0
0 0 0 0 0 0 0 0 0 0
0 0 0 0 0 0 0 0 0 0
0 0 0 0 0 0 0 0 0 0
0 0 0 0 0 0 0 0 0 0
0 0 0 0 0 0 0 0 0 0
0 0 0 0 0 0 0 0 0 0
0 0 0 0 0 0 0 0 0 0
0 0 0 0 0 0 0 0 0 0
0 0 0 0 0 0 0 0 0 0
0 0 0 0 0 0 0 0 0 0
0 0 0 0 0 0 0 0 0 0
0 0 0 0 0 0 0 0 0 0
0 0 0 0 0 0 0 0 0 0
0 0 0 0 0 0 0 0 0 0
0 0 0 0 0 0 0 0 0 0
0 0 0 0 0 0 0 0 0 0
0 0 0 0 0 0 0 0 0 0
0 0 0 0 0 0 0 0 0 0
0 0 0 0 0 0 0 0 0 0
0 0 0 0 0 0 0 0 0 0
0 0 0 0 0 0 0 0 0 0
0 0 0 0 0 0 0 0 0 0
0 0 0 0 0 0 0 0 0 0
0 0 0 0 0 0 0 0 0 0
0 0 0 0 0 0 0 0 0 0
0 0 0 0 0 0 0 0 0 0
0 0 0 0 0 0 0 0 0 0
0 0 0 0 0 0 0 0 0 0
0 0 0 0 0 0 0 0 0 0
0 0 0 0 0 0 0 0 0 0
0 0 0 0 0 0 0 0 0 0
0 0 0 0 0 0 0 0 0 0
0 0 0 0 0 0 0 0 0 0
0 0 0 0 0 0 0 0 0 0
0 0 0 0 0 0 0 0 0 0
0 0 0 0 0 0 0 0 0 0
0 0 0 0 0 0 0 0 0 0
0 0 0 0 0 0 0 0 0 0
0 0 0 0 0 0 0 0 0 0
0 0 0 0 0 0 0 0 0 0
0 0 0 0 0 0 0 0 0 0
0 0 0 0 0 0 0 0 0 0
0 0 0 0 0 0 0 0 0 0
0 0 0 0 0 0 0 0 0 0
0 0 0 0 0 0 0 0 0 0
0 0 0 0 0 0 0 0 0 0
0 0 0 0 0 0 0 0 0 0
0 0 0 0 0 0 0 0 0 0
0 0 0 0 0 0 0 0 0 0
0 0 0 0 0 0 0 0 0 0
0 0 0 0 0 0 0 0 0 0
0 0 0 0 0 0 0 0 0 0
0 0 0 0 0 0 0 0 0 0
0 0 0 0 0 0 0 0 0 0
0 0 0 0 0 0 0 0 0 0
0 0 0 0 0 0 0 0 0 0
0 0 0 0 0 0 0 0 0 0
0 0 0 0 0 0 0 0 0 0
0 0 0 0 0 0 0 0 0 0
0 0 0 0 0 0 0 0 0 0
0 0 0 0 0 0 0 0 0 0
0 0 0 0 0 0 0 0 0 0
0 0 0 0 0 0 0 0 0 0
0 0 0 0 0 0 0 0 0 0
0 0 0 0 0 0 0 0 0 0
0 0 0 0 0 0 0 0 0 0
0 0 0 0 0 0 0 0 0 0
0 0 0 0 0 0 0 0 0 0
0 0 0 0 0 0 0 0 0 0
0 0 0 0 0 0 0 0 0 0
0 0 0 0 0 0 0 0 0 0
0 0 0 0 0 0 0 0 0 0
0 0 0 0 0 0 0 0 0 0
0 0 0 0 0 0 0 0 0 0
0 0 0 0 0 0 0 0 0 0
0 0 0 0 0 0 0 0 0 0
0 0 0 0 0 0 0 0 0 0
0 0 0 0 0 0 0 0 0 0
0 0 0 0 0 0 0 0 0 0
0 0 0 0 0 0 0 0 0 0
0 0 0 0 0 0 0 0 0 0
0 0 0 0 0 0 0 0 0 0
0 0 0 0 0 0 0 0 0 0
0 0 0 0 0 0 0 0 0 0
0 0 0 0 0 0 0 0 0 0
0 0 0 0 0 0 0 0 0 0
0 0 0 0 0 0 0 0 0 0
0 0 0 0 0 0 0 0 0 0
0 0 0 0 0 0 0 0 0 0
0 0 0 0 0 0 0 0 0 0
0 0 0 0 0 0 0 0 0 0
0 0 0 0 0 0 0 0 0 0
0 0 0 0 0 0 0 0 0 0
0 0 0 0 0 0 0 0 0 0
0 0 0 0 0 0 0 0 0 0
0 0 0 0 0 0 0 0 0 0
0 0 0 0 0 0 0 0 0 0
0 0 0 0 0 0 0 0 0 0
0 0 0 0 0 0 0 0 0 0
0 0 0 0 0 0 0 0 0 0
0 0 0 0 0 0 0 0 0 0
0 0 0 0 0 0 0 0 0 0
0 0 0 0 0 0 0 0 0 0
0 0 0 0 0 0 0 0 0 0
0 0 0 0 0 0 0 0 0 0
0 0 0 0 0 0 0 0 0 0
0 0 0 0 0 0 0 0 0 0
0 0 0 0 0 0 0 
U 3 3098 float
7.5537 0.213507 0.0115345 7.55503 0.220315 -0.00568174 7.5532 0.253392 0.00733273 7.50478 0.368489
-0.0012955 7.55117 0.211262 -0.00102652 7.51407 0.346892 -0.015387 7.602 0.119986 -0.000586751
7.55659 0.25596 -0.00448571 7.43358 0.430486 -0.000168434 7.60109 0.11878 0.00380038 7.59295
0.177959 0.00102176 7.44067 0.432506 -0.00599546 7.51143 0.354798 -0.00465065 7.60803 0.112041
0.00429035 7.61689 0.0325553 -0.000814383 7.44118 0.436233 -0.00353934 7.61424 0.0318707 0.00196544
7.31183 0.555327 0.00070268 7.55525 0.257335 -0.00141563 7.59075 0.178181 0.000779542 7.31365
0.548821 -0.00406617 7.51198 0.356447 -0.00188283 7.61451 0.0301514 0.00323442 7.60711 0.111276
0.00208865 7.30894 0.549541 -0.00256751 7.44273 0.437668 -0.001524 7.61806 -0.0487561 0.000222092
7.61039 -0.047831 0.00371449 7.11221 0.710419 0.0020852 7.55442 0.257851 -0.000472646 7.11635
0.74124 0.00736983 7.58961 0.17834 0.00060911 7.61414 0.0293923 0.0028091 7.5119 0.356989
-0.000733595 7.31008 0.551054 -0.00125602 7.60468 -0.048799 0.00459412 7.60616 0.110977 0.00141345
7.11531 0.745428 4.35053e-05 7.44313 0.438121 -0.000682672 7.3573 -0.338506 0.00104508 7.60305
-0.0505846 0.00398329 7.35534 -0.3173 0.00829659 7.61323 0.0288503 0.00220532 6.86101 1.0697
-0.00296608 7.11834 0.746287 0.00096435 7.31057 0.551377 -0.00048403 7.55393 0.257964 -2.23189e-05
6.88359 1.06475 -0.0235904 7.58893 0.17831 0.000566403 7.51173 0.357146 -0.000209981 7.35253
-0.305849 0.0084423 6.85902 1.06134 -0.0410961 7.60544 0.110771 0.00108595 7.44327 0.438254
-0.000249249 7.60173 -0.0515693 0.00317673 7.35029 -0.309041 0.006086 7.11889 0.747044 0.000305614
7.04374 -0.0817352 -0.00142917 7.61244 0.0285059 0.00168997 6.86272 1.06387 -0.0102797 7.05276
-0.059444 0.0158211 7.31087 0.551755 -8.5872e-05 6.39713 1.47932 -0.00493213 6.29537 1.595
0.0597046 6.37487 1.61384 0.0371494 7.55362 0.257966 0.000169606 7.05682 -0.0343496 0.0153402
7.5885 0.178261 0.000518842 7.51159 0.357176 2.4053e-05 7.34857 -0.310779 0.00446514 6.50045
1.42855 0.0108502 7.60079 -0.0520578 0.00237226 7.60496 0.110642 0.000860458 7.44328 0.438291
-3.7551e-05 6.86542 1.06407 -0.000996636 7.11902 0.7477 0.000224291 6.20431 1.76599 0.0116402
6.13848 1.78146 -0.00221655 7.0556 -0.0332531 0.00939185 6.14794 1.79258 0.000590359 6.51318
1.42903 0.00489191 7.61192 0.0282887 0.00126977 7.33175 0 20.1438 7.31098 0.551831
3.90628e-06 7.33087 0 20.1414 6.01137 2.40339 0.0217424 7.34759 -0.311408 0.00311021
6.03197 2.4639 -0.0336326 7.33044 0 20.1402 6.05204 2.50144 -0.0343709 7.05463
-0.0346611 0.00590435 7.55342 0.257939 0.000233249 6.8657 1.0642 0.000181435 5.98875 2.63293
-0.0643156 7.58823 0.178208 0.000451699 7.51148 0.357181 0.00012104 7.60026 -0.0523665 0.00169547
6.51918 1.43091 0.0017779 6.0119 2.59738 -0.0737614 7.11912 0.747833 0.000142883 7.60464
0.110548 0.000678627 6.01405 2.64973 -0.0436579 6.01457 2.64874 -0.0429939 7.44325 0.438299
6.15397e-05 6.01074 2.66116 -0.0429038 7.3308 0 20.1412 5.76495 3.4231 0.00900084
5.71579 3.52691 0.00225335 5.77661 3.44497 0.0147373 5.9286 3.36281 0.00611314 6.03932
2.59374 -0.0119153 5.83466 3.29154 0.00642994 7.61159 0.0281415 0.000945866 5.81215 3.81883
-0.0236831 5.8162 3.83725 -0.0734716 7.05402 -0.0354308 0.00382243 5.81402 3.26667 -0.00173656
5.8181 3.79544 -0.0846918 7.31101 0.551829 5.48413e-05 7.34704 -0.311932 0.00208144 5.8257
3.25946 -0.00302977 6.02977 2.64272 -0.00144672 5.82255 3.39562 0.0443233 5.83848 3.24966
-0.0018917 6.52024 1.43075 0.000733379 6.86581 1.06414 0.000229263 7.33086 0 20.1414
6.14069 3.99777 0.116069 6.13472 3.99653 -0.274376 6.28033 3.95329 0.12662 6.36476
3.96802 -0.424587 6.03843 3.84025 -0.75771 2.11773 1.29524 -0.136712 0.881048 0.54006
0.0181851 6.13104 3.86023 -1.25177 5.85265 3.24336 0.00109743 0 0 0
0 0 0 5.892 3.84667 0.170932 0 0 0 5.84304
3.75757 0.167863 0 0 0 6.04644 2.59367 0.00144997 5.85153 3.65934
0.150055 7.59994 -0.0525785 0.00120573 0 0 0 6.16656 4.07318 0.168999
5.93908 3.73681 0.152964 7.55328 0.257911 0.000236452 6.08042 3.84977 0.147142 7.11919
0.747824 0.000119987 0 0 0 7.58805 0.178163 0.000377858 5.87248 3.59755
0.0714566 7.5114 0.357165 0.000150325 6.16278 4.0654 0.0807715 5.85798 3.24238 0.00182984
5.9688 3.73013 0.0627469 6.03071 3.79145 0.0580437 0 0 0 6.0305
2.64163 0.00137516 7.60444 0.11048 0.00052936 5.87883 3.57549 0.0216985 6.10639 4.04335
0.0168813 7.44321 0.438292 0.000100638 7.05356 -0.0358803 0.00250851 0 0 0
5.97361 3.72005 0.01879 6.02096 3.76845 0.0176666 5.85904 3.24151 0.00173313 7.33086
0 20.1414 6.10834 4.04078 0.00729021 5.88194 3.56935 0.00694551 6.52051 1.43066
0.00045088 7.34672 -0.312305 0.00141688 0 0 0 6.04646 2.59344 0.00105414
7.61138 0.0280491 0.000702481 5.97643 3.71651 0.00615002 6.01915 3.76109 0.00585648 7.31101
0.551824 8.15937e-05 6.86588 1.06415 0.000189894 5.85898 3.24129 0.00131199 6.1001 4.03196
0.00337783 5.8805 3.56824 0.0027046 0 0 0 5.97325 3.71557 0.00250399
6.01693 3.76088 0.00242933 6.03024 2.64125 0.000729992 6.10572 4.03751 0.00191803 7.59976
-0.052705 0.000863623 5.8589 3.24094 0.000927301 0 0 0 5.88194 3.56757
0.00136875 7.11923 0.747827 0.000109398 5.97566 3.71514 0.00130529 6.01779 3.75929 0.00128512
7.33086 0 20.1414 7.55319 0.257884 0.000213392 7.05326 -0.0362137 0.00168699 6.09901
4.03094 0.00117604 7.58792 0.178126 0.00030708 7.51133 0.357151 0.000149072 0 0
0 6.0463 2.59327 0.000561503 5.8802 3.56755 0.000878995 5.85874 3.24091 0.000674797
6.52059 1.43071 0.000300837 7.6043 0.110429 0.000408663 5.97281 3.71501 0.000845102 6.01641
3.76028 0.000834661 7.44317 0.438282 0.000109473 6.10522 4.03707 0.000788659 7.34652 -0.312551
0.000986425 0 0 0 6.86594 1.06415 0.000130873 5.88172 3.56726 0.000626094
7.61124 0.0279813 0.000520735 6.03012 2.64117 0.000421776 5.85873 3.24073 0.000526717 7.311
0.551817 8.65145e-05 5.97538 3.71485 0.000606288 6.01749 3.759 0.000600283 6.0987 4.03068
0.00057341 0 0 0 7.33086 0 20.1414 5.88005 3.56738 0.000495427
7.59965 -0.0527943 0.000621527 5.85863 3.24082 0.000409917 6.0462 2.59322 0.000321784 5.97263
3.71484 0.000481923 6.01622 3.7601 0.000477616 7.05305 -0.0363775 0.00116429 7.11924 0.747819
9.37775e-05 6.10501 4.0369 0.000459438 0 0 0 6.52062 1.43073 0.000176941
7.55312 0.257865 0.000180371 5.88162 3.56719 0.000392699 7.58784 0.1781 0.000243593 7.51128
0.357136 0.000132279 5.97525 3.71477 0.000383713 6.01736 3.75892 0.000380958 5.85864 3.24068
0.000309715 6.03005 2.64114 0.000241182 7.60422 0.110395 0.000311817 7.3464 -0.312714 0.000694472
6.09856 4.03059 0.000370152 7.44314 0.438272 0.000100819 0 0 0 6.86594
1.06412 9.87801e-05 5.87997 3.56734 0.000295423 7.61116 0.0279392 0.000384844 7.33086 0
20.1414 5.97255 3.7148 0.000289331 7.31098 0.551811 7.84491e-05 6.01613 3.76006 0.000287259
5.85857 3.24078 0.00023083 6.10492 4.03685 0.000278726 6.04616 2.5932 0.000182754 0
0 0 7.05292 -0.0365104 0.000814265 7.59958 -0.0528518 0.000449944 5.88157 3.56716
0.000217778 7.11924 0.747818 7.53511e-05 6.52062 1.43069 0.000118455 5.97519 3.71474 0.000213522
6.0173 3.75888 0.000211965 5.85861 3.24065 0.000177823 6.0985 4.03054 0.000205135 0
0 0 6.03004 2.64111 0.000139746 7.55307 0.257846 0.000146696 7.58779 0.178077
0.000189817 7.51125 0.357123 0.000110907 7.34631 -0.312841 0.000495754 5.87995 3.56731 0.000172177
5.9725 3.71476 0.00016969 6.01609 3.76003 0.000168739 6.86595 1.06412 6.89583e-05 7.60415
0.110365 0.000235669 7.44312 0.438259 8.58252e-05 6.10487 4.03681 0.000164695 7.33086 0
20.1414 5.85856 3.24077 0.00014086 0 0 0 6.04616 2.59318 0.000113519
7.6111 0.0279025 0.000283532 7.31097 0.551798 6.5753e-05 5.88156 3.56715 0.000140514 5.97517
3.71472 0.000139128 6.01727 3.75886 0.000138739 7.05281 -0.03658 0.000578969 6.09847 4.03052
0.000137455 5.85861 3.24064 0.000111305 0 0 0 6.52062 1.43071 7.69537e-05
7.59953 -0.0528949 0.00032622 7.11922 0.747809 5.80695e-05 6.03001 2.6411 9.07649e-05 5.87995
3.56731 0.000108526 5.97249 3.71476 0.000107462 6.01608 3.76002 0.000106982 6.10486 4.03681
0.000104888 7.34626 -0.312914 0.000354915 0 0 0 5.85855 3.24076 8.64373e-05
7.55304 0.257835 0.000115731 7.33086 0 20.1414 7.58775 0.178062 0.000145921 7.51122
0.357114 8.96084e-05 6.86592 1.06409 4.9864e-05 6.04613 2.59318 7.40716e-05 7.60412 0.110345
0.000177962 7.4431 0.438252 7.02957e-05 5.88155 3.56715 8.16617e-05 5.97516 3.71471 8.10248e-05
6.01726 3.75885 8.04316e-05 6.09845 4.03051 7.73652e-05 7.61106 0.0278798 0.000210148 0
0 0 7.31095 0.551791 5.33845e-05 5.85859 3.24064 7.24341e-05 7.05275 -0.0366409
0.000413732 6.52062 1.43068 5.22969e-05 6.03001 2.64109 6.28533e-05 7.5995 -0.0529235 0.000237924
5.87993 3.5673 7.0227e-05 7.11922 0.747804 4.55965e-05 5.97248 3.71475 6.90769e-05 6.01606
3.76001 6.86483e-05 6.10484 4.03679 6.69071e-05 0 0 0 5.85855 3.24075
6.36436e-05 7.33086 0 20.1414 7.34622 -0.312984 0.000255446 6.04614 2.59316 5.0788e-05
6.86593 1.0641 3.73002e-05 5.88154 3.56714 6.3224e-05 7.55302 0.257823 8.88704e-05 7.58772
0.178048 0.000110234 5.97514 3.7147 6.14997e-05 7.5112 0.357106 6.99662e-05 6.01725 3.75884
6.13131e-05 6.09844 4.0305 6.11482e-05 7.60409 0.110331 0.000133026 0 0 0
7.44308 0.438245 5.53153e-05 5.8586 3.24063 4.84295e-05 7.05269 -0.0366672 0.000296414 7.61103
0.0278629 0.000154876 7.31094 0.551785 4.15499e-05 6.52062 1.4307 3.76922e-05 6.03 2.64109
3.89197e-05 5.87993 3.5673 4.6277e-05 5.97247 3.71474 4.55973e-05 6.01605 3.76001 4.5406e-05
6.10483 4.03679 4.45316e-05 7.59948 -0.052943 0.000172765 0 0 0 7.1192
0.747797 3.51801e-05 5.85854 3.24075 3.46793e-05 7.33086 0 20.1414 5.88154 3.56714
3.15308e-05 6.04612 2.59317 3.37513e-05 7.34619 -0.313013 0.000182675 5.97514 3.7147 3.19038e-05
6.01724 3.75884 3.16494e-05 6.86591 1.06408 2.88864e-05 6.09843 4.0305 2.99203e-05 0
0 0 7.553 0.257817 6.62131e-05 7.58771 0.17804 8.10681e-05 7.51118 0.3571
5.25469e-05 5.85858 3.24063 3.24251e-05 7.60407 0.110321 9.66932e-05 7.44307 0.438241 4.14689e-05
7.05266 -0.0367004 0.000210923 5.87992 3.5673 3.15623e-05 6.02999 2.64108 3.0937e-05 6.52062
1.43067 2.60198e-05 5.97246 3.71474 3.11163e-05 7.61102 0.0278526 0.000111397 6.01605 3.76
3.09748e-05 7.31093 0.551782 3.09278e-05 6.10482 4.03678 3.04036e-05 0 0 0
5.85854 3.24074 3.233e-05 7.59947 -0.0529576 0.000123427 7.1192 0.747796 2.58509e-05 7.33086
0 20.1414 5.88153 3.56713 3.30502e-05 6.04613 2.59315 2.53318e-05 5.97513 3.7147
3.15474e-05 6.01724 3.75884 3.15142e-05 6.09843 4.03049 3.20677e-05 7.34617 -0.313057 0.000129834
0 0 0 6.86592 1.06409 2.01048e-05 5.85859 3.24061 2.45977e-05 7.55299
0.257808 4.71558e-05 7.58769 0.178031 5.74968e-05 7.51117 0.357095 3.74486e-05 5.87992 3.56729
2.34748e-05 7.60406 0.110312 6.8094e-05 7.05263 -0.0367102 0.000149801 5.97246 3.71474 2.27475e-05
6.02999 2.64108 1.83116e-05 6.01604 3.76 2.25597e-05 7.44306 0.438236 2.95273e-05 6.10482
4.03678 2.1865e-05 6.52062 1.43069 1.7889e-05 0 0 0 7.611 0.0278413
7.78286e-05 7.31092 0.551776 2.16179e-05 5.85853 3.24074 1.54646e-05 7.59946 -0.0529684 8.5773e-05
7.33086 0 20.1414 7.11919 0.747791 1.71604e-05 5.88153 3.56713 1.28484e-05 5.97513
3.71469 1.31811e-05 6.01723 3.75883 1.29003e-05 6.04611 2.59316 1.43991e-05 6.09842 4.03049
1.12026e-05 0 0 0 7.34617 -0.313065 8.97909e-05 6.8659 1.06407 1.2833e-05
5.85857 3.24063 1.35467e-05 5.87991 3.56729 1.29717e-05 5.97245 3.71474 1.27751e-05 7.55298
0.257805 3.11518e-05 6.01604 3.76 1.27004e-05 7.58768 0.178028 3.86731e-05 6.02999 2.64108
1.24249e-05 7.51116 0.357092 2.4117e-05 6.10481 4.03677 1.23859e-05 7.05262 -0.0367276 0.000104622
0 0 0 7.60405 0.110307 4.6349e-05 6.52061 1.43066 9.96997e-06 7.44305
0.438235 1.84715e-05 5.85853 3.24074 1.37246e-05 7.611 0.027836 5.28392e-05 7.31092 0.551776
1.29065e-05 5.88153 3.56713 1.48872e-05 7.33086 0 20.1414 5.97513 3.71469 1.3876e-05
7.59946 -0.0529766 5.73741e-05 6.01723 3.75883 1.39625e-05 6.09842 4.03049 1.48503e-05 7.11919
0.747791 9.19184e-06 6.04612 2.59314 8.13562e-06 0 0 0 5.85858 3.24061
7.48829e-06 7.34616 -0.313095 5.92736e-05 6.86591 1.06408 5.46473e-06 5.87992 3.56729 6.88373e-06
5.97246 3.71473 6.53402e-06 6.01604 3.76 6.45215e-06 6.10481 4.03678 6.14e-06 6.02999
2.64107 2.39554e-06 0 0 0 7.05259 -0.0367278 7.02874e-05 7.55297 0.257801
1.77295e-05 7.58768 0.178024 2.30483e-05 7.51116 0.357088 1.26034e-05 6.52061 1.43068 4.29728e-06
7.60404 0.110304 2.84941e-05 7.44304 0.438231 8.4935e-06 5.85853 3.24074 1.22441e-08 7.611
0.0278325 3.2792e-05 7.31091 0.551772 4.80233e-06 5.88152 3.56713 -2.00011e-06 5.97512 3.71469
-1.34762e-06 6.01723 3.75883 -1.54397e-06 7.33086 0 20.1414 6.09842 4.03049 -2.84624e-06
0 0 0 6.0461 2.59316 7.58382e-07 7.59946 -0.0529812 3.50908e-05 7.11918
0.747788 1.98406e-06 5.85857 3.24062 3.87031e-07 7.34615 -0.313095 3.5312e-05 6.8659 1.06407
-1.59018e-06 5.87991 3.56729 3.71991e-07 5.97245 3.71473 4.99802e-07 6.01603 3.75999 4.92695e-07
6.10481 4.03677 4.77231e-07 0 0 0 6.02998 2.64107 2.01793e-06 7.05259
-0.0367412 4.31327e-05 6.52061 1.43066 -3.71605e-06 7.55297 0.257801 6.28676e-06 7.58767 0.178023
9.55513e-06 7.51115 0.357086 2.96452e-06 5.85853 3.24074 3.99641e-06 7.60404 0.110303 1.29037e-05
7.44304 0.43823 1.66184e-07 5.88153 3.56713 5.65235e-06 7.611 0.0278318 1.56697e-05 5.97512
3.71469 4.90729e-06 6.01723 3.75883 5.02256e-06 7.31091 0.551773 -2.36531e-06 7.33086 0
20.1414 6.09842 4.03049 5.99023e-06 0 0 0 6.04612 2.59314 2.00373e-06
7.59946 -0.0529855 1.72873e-05 7.11919 0.74779 -4.55217e-06 5.85858 3.24061 2.22535e-06 7.34615
-0.313119 1.7707e-05 5.87992 3.56729 1.70888e-06 6.86591 1.06408 -7.00364e-06 5.97245 3.71473
1.11265e-06 6.01604 3.76 1.00251e-06 6.10481 4.03677 5.32184e-07 0 0 0
6.02999 2.64106 -5.24387e-07 7.05257 -0.0367401 2.25709e-05 6.52061 1.43068 -7.79308e-06 5.85853
3.24073 -2.89915e-06 7.55296 0.257798 -3.96856e-06 7.58767 0.17802 -2.30018e-06 7.51115 0.357085