/*--------------------------------*- C++ -*----------------------------------*\
  =========                 |
  \\      /  F ield         | OpenFOAM: The Open Source CFD Toolbox
   \\    /   O peration     | Website:  https://openfoam.org
    \\  /    A nd           | Version:  10
     \\/     M anipulation  |
\*---------------------------------------------------------------------------*/
FoamFile
{
    format      ascii;
    class       volScalarField;
    location    "2000";
    object      k;
}
// * * * * * * * * * * * * * * * * * * * * * * * * * * * * * * * * * * * * * //

dimensions      [0 2 -2 0 0 0 0];

internalField   nonuniform List<scalar> 
8808
(
1.41274
1.49478
1.52723
1.52774
1.24183
1.39274
1.48408
1.58151
1.8804
2.47419
1.04941
1.26604
1.41143
1.57809
1.78514
2.06665
2.15962
1.69482
1.90751
1.62324
1.60887
1.75946
1.71906
0.169188
0.875514
1.31641
1.46606
1.55613
1.55444
1.41015
1.18728
0.119069
0.465847
0.935437
1.23862
1.41282
1.49413
1.524
1.51419
0.0906656
0.231098
0.622189
0.989084
1.24194
1.39284
1.48351
1.57598
1.88465
2.53195
0.0835565
0.112319
0.386635
0.739272
1.04945
1.26614
1.41159
1.57801
1.78217
2.06229
2.16155
1.69466
1.90638
0.519582
1.58593
1.65207
1.63821
1.80343
1.75503
0.16871
0.873114
1.31357
1.4629
1.55276
1.55131
1.40827
1.25421
0.118753
0.46561
0.93558
1.23877
1.41277
1.49334
1.52105
1.50983
0.0906052
0.230605
0.621889
0.989094
1.24203
1.39289
1.48278
1.57053
1.89225
2.57685
0.0835433
0.112039
0.386379
0.739166
1.04946
1.26623
1.41169
1.57768
1.77968
2.06094
1.69441
1.90521
0.520532
1.61389
1.6812
1.66644
1.83968
1.78422
0.168243
0.870741
1.31112
1.46099
1.55077
1.5503
1.41158
1.32282
0.118454
0.465395
0.935683
1.23884
1.41263
1.49249
1.5185
1.51335
0.0905452
0.230121
0.621586
0.989091
1.24211
1.39289
1.48193
1.56563
1.90133
2.61104
0.08353
0.111758
0.386109
0.739049
1.04947
1.26632
1.41173
1.57715
1.77784
2.06217
1.69409
1.90411
0.521869
1.64134
1.70821
1.69195
1.86884
1.80752
0.167791
0.868544
1.30923
1.46015
1.55014
1.55113
1.41951
1.38813
0.118172
0.465192
0.93575
1.23885
1.41244
1.49168
1.51641
1.52294
0.0904859
0.229655
0.621293
0.989083
1.24217
1.39283
1.48104
1.56162
1.91088
2.63678
0.0835166
0.111476
0.385834
0.738923
1.04947
1.26639
1.41171
1.57647
1.77671
2.06545
1.69374
1.90318
0.523451
1.66683
1.73192
1.714
1.8919
1.82586
0.167357
0.866648
1.30804
1.46032
1.55074
1.55351
1.43049
1.44767
0.117905
0.464996
0.935786
1.23883
1.41223
1.49097
1.51496
1.53645
0.0904279
0.229203
0.621005
0.989069
1.24222
1.39275
1.48017
1.55871
1.92039
0.0835034
0.111198
0.38555
0.738788
1.04947
1.26644
1.41163
1.57572
1.77626
1.69341
0.525181
1.68961
1.75198
1.73246
1.90995
1.84014
0.865149
1.3076
1.46143
1.55242
1.55711
1.44373
1.50049
0.935796
1.23879
1.41205
1.49043
1.51425
1.55303
0.620726
0.989048
1.24226
1.39264
1.47941
1.55704
1.74757
1.92397
1.85118
1.46339
1.55499
1.56165
1.45859
1.54647
1.23878
1.41193
1.49012
1.51438
1.57184
0.989013
1.24229
1.39253
1.47878
1.55664
1.93484
1.85969
1.55827
1.56684
1.47446
1.58596
1.41189
1.49006
1.51536
1.59217
1.2423
1.39244
1.47836
1.55751
1.86626
1.57245
1.49074
1.61955
1.49028
1.51724
1.61339
1.4782
1.5596
1.50697
1.64794
1.51993
1.63501
1.47826
1.56282
1.9632
1.52274
1.67187
1.52348
1.65659
1.47857
1.56706
1.97076
1.53779
1.69202
1.67773
1.57217
1.97799
2.45769
2.18474
2.19611
1.74732
1.74525
1.626
1.62312
1.70891
1.64908
1.58343
1.45949
1.32142
1.0926
1.44238
1.17157
1.35228
2.07947
1.57862
1.75457
1.51981
2.11944
1.5725
1.75
1.93816
1.9552
2.40762
1.86237
2.03669
1.88332
2.45133
1.86
2.03681
2.18607
2.19771
2.51887
2.18873
2.20579
2.19293
2.20588
1.05136
1.88574
1.88265
1.84287
1.79313
1.79222
1.83505
1.82318
1.76997
1.79863
0.519402
1.52521
0.281634
0.809839
1.57912
1.64205
1.20089
1.38125
1.62899
1.49288
1.52285
1.64469
1.65004
1.49079
1.522
1.73597
1.54243
1.58018
1.63084
1.76738
1.54279
1.5806
1.75406
1.62586
1.62415
1.79325
1.77869
1.62646
1.62604
1.66581
1.58526
1.46459
1.7467
1.71055
1.58807
1.47121
1.32346
1.11002
1.33285
1.16561
1.46568
1.53251
1.36843
1.23692
1.38778
2.13284
1.56685
1.74677
1.51099
2.17187
1.56202
1.74493
1.9607
1.97693
2.46427
1.85813
2.03781
1.89032
2.49923
1.85678
2.03958
2.19252
2.20905
2.56681
2.19722
2.22071
2.21056
2.22597
1.05279
1.89901
1.05687
1.93426
1.89611
1.85552
1.93221
1.88936
1.84768
1.83268
1.88161
1.8586
1.80759
1.83242
1.53171
0.280896
0.807875
0.520226
1.55161
0.280199
0.806195
1.64951
1.19894
1.37968
1.60688
1.67156
1.19743
1.37865
1.65715
1.4893
1.52192
1.67403
1.67781
1.48841
1.52253
1.77701
1.54378
1.58159
1.65954
1.80385
1.5453
1.5831
1.78624
1.62772
1.62866
1.83139
1.80703
1.62959
1.63171
1.72381
1.59174
1.47906
1.77751
1.75885
1.59598
1.48767
1.3371
1.18441
1.35208
1.24067
1.55356
1.6127
1.40857
1.30574
1.43046
2.18443
1.55779
1.74428
1.51076
2.21999
1.55446
1.74481
1.98198
1.99666
2.5094
1.8559
2.042
1.89917
2.53666
1.85548
2.04497
2.20261
2.22471
2.60345
2.20852
2.23758
1.05816
1.94457
1.06178
1.9717
1.94289
1.89935
1.97124
1.92573
1.89169
1.86644
1.91844
1.88753
1.84005
1.86081
1.55826
0.279534
0.804776
0.521481
1.57784
0.278917
0.803669
1.67874
1.19637
1.37816
1.63462
1.69918
1.19577
1.37821
1.68452
1.48811
1.52365
1.70171
1.70337
1.48837
1.52521
1.81193
1.5473
1.5851
1.68582
1.83425
1.54973
1.58753
1.8133
1.63198
1.63512
1.86224
1.83035
1.63482
1.63885
1.76913
1.60059
1.49665
1.80219
1.79593
1.60549
1.50588
1.35781
1.25875
1.37625
1.3109
1.63105
1.68212
1.45313
1.37219
1.47637
2.23119
1.55179
1.74634
1.51764
2.26249
1.55005
1.74883
2.00118
2.01424
2.5445
1.85547
2.04835
1.90867
2.56547
1.85582
2.05207
2.21478
2.24172
2.6311
2.22125
2.25432
1.06292
1.97959
1.06609
2.00022
1.97957
1.93344
2.00155
1.95364
1.9263
1.89384
1.947
1.91062
1.86709
1.88396
1.58419
0.278337
0.802839
0.523012
1.60241
0.27781
0.802325
1.70565
1.19561
1.37876
1.6607
1.72365
1.19591
1.37979
1.70934
1.48916
1.52721
1.7263
1.72568
1.49042
1.52958
1.84087
1.55254
1.59033
1.70877
1.85907
1.55568
1.59343
1.83542
1.63802
1.64281
1.88672
1.84906
1.64153
1.64695
1.80371
1.61061
1.51526
1.82168
1.82378
1.61588
1.52467
1.3828
1.32717
1.40284
1.37309
1.69784
1.74121
1.49991
1.43331
1.52356
2.27223
1.54894
1.75211
1.52931
2.29922
1.54869
1.75615
2.01826
2.02988
2.57144
1.85649
2.05601
1.91822
2.58744
1.85743
2.06011
2.2278
2.25824
2.65182
2.23433
2.26986
1.06708
2.0062
1.06983
2.02184
2.00799
1.95951
2.02495
1.9748
1.95304
1.9156
1.96882
1.92872
1.88901
1.90241
1.60819
0.277323
0.802082
0.524712
1.62452
0.276891
0.802143
1.72924
1.19662
1.38125
1.6842
1.74452
1.19774
1.3831
1.73077
1.49213
1.53229
1.74728
1.74448
1.49422
1.53526
1.86442
1.55909
1.59679
1.72812
1.87906
1.56272
1.60036
1.85307
1.64526
1.65121
1.90592
1.8638
1.64916
1.65555
1.82957
1.62124
1.53403
1.8369
1.8444
1.62662
1.54325
1.40961
1.38717
1.42971
1.4264
1.75446
1.79077
1.54713
1.48785
1.57048
2.30758
1.54902
1.76077
1.54446
2.33068
1.55014
1.76595
2.03345
2.04383
2.59197
1.8586
2.06428
1.92754
2.60415
1.85997
2.06848
1.07069
2.02637
2.0299
1.97922
1.97339
1.93258
1.98525
1.94269
1.90638
1.9168
1.62962
1.74921
1.19921
1.38531
1.74872
1.49664
1.53848
1.76466
1.75997
1.49935
1.54188
1.88332
1.56652
1.60407
1.74403
1.89499
1.57044
1.60789
1.86692
1.65317
1.65991
1.92086
1.87524
1.65725
1.66426
1.84866
1.632
1.55229
1.84868
1.85953
1.63731
1.56107
1.43632
1.43829
1.45553
1.47116
1.80178
1.8318
1.59346
1.53553
1.616
2.33782
1.55175
1.77155
1.56224
2.35755
1.55408
1.77754
2.04704
2.05637
1.91986
1.89836
1.57445
1.61177
1.90761
1.61569
1.87765
1.66135
1.66857
1.93245
1.88404
1.66544
1.67281
1.86267
1.64254
1.56957
1.85776
1.87062
1.64765
1.57775
1.46173
1.48104
1.47952
1.50825
1.84084
1.86538
1.63798
1.5766
1.65938
2.36367
1.55683
1.78379
1.58189
2.38061
1.56021
1.79031
2.05926
2.06772
1.88589
1.66949
1.67695
1.89079
1.68098
1.87293
1.65262
1.5856
1.86477
1.87878
1.65742
1.5931
1.4852
1.5164
1.50133
1.53876
1.87275
1.89268
1.68011
1.6116
1.70016
2.38589
1.56392
1.79697
1.60274
2.40052
1.56818
1.80378
2.07034
2.07805
1.8805
1.66206
1.60024
1.87018
1.88485
1.66652
1.60702
1.50643
1.54545
1.52085
1.56377
1.89866
1.9148
1.71947
1.64123
1.73807
2.40511
1.5727
1.81064
1.62421
2.41785
1.57768
1.81757
2.08045
2.08752
1.88614
1.61343
1.52538
1.56924
1.53811
1.58423
1.91964
1.93272
1.7559
1.66622
1.773
2.42187
1.58285
1.82447
1.64585
2.43304
1.58839
1.83139
2.08973
2.09624
1.87699
1.96907
1.87911
1.54209
1.5887
1.55326
1.60098
1.93664
1.94726
1.78932
1.68726
1.80495
2.43657
1.59406
1.83821
1.66727
2.44642
1.60002
1.84501
2.09826
2.10426
1.88123
1.97637
1.88337
1.55672
1.60461
1.95046
1.81975
2.44953
1.60603
1.85164
2.10613
1.88549
1.41314
1.30873
1.44097
1.46852
2.39761
2.40586
2.29051
2.48654
2.2042
2.49001
2.28053
2.49976
2.21347
2.51917
2.53271
2.50673
2.54601
2.15997
1.57723
1.63641
1.5339
1.63021
1.57542
1.64329
1.53542
1.56817
1.60505
1.54494
1.61613
1.56458
1.612
1.54838
1.64128
1.76522
1.60803
1.77126
1.63517
1.77662
1.61379
1.57508
1.68961
1.58074
1.72873
1.56823
1.69956
1.58698
1.38849
1.38995
1.3648
1.412
1.3102
1.43764
1.46304
1.40853
1.31425
1.43483
1.45894
1.59198
1.54444
1.1788
1.20331
1.56288
1.56987
1.1876
2.42944
2.43683
2.32829
2.53452
2.24131
2.5444
2.31908
2.54468
2.25051
2.56366
2.58197
2.55339
2.59262
2.16409
1.47635
1.63065
1.35344
1.59286
1.47408
1.63792
1.35558
1.58693
1.6648
1.54194
1.65943
1.58399
1.67196
1.54484
1.58444
1.63301
1.55982
1.6454
1.58006
1.63984
1.56411
1.66596
1.80731
1.63157
1.81328
1.65976
1.81661
1.63765
1.60256
1.72709
1.60557
1.76293
1.59565
1.73532
1.61181
1.475
1.47481
1.45476
1.4944
1.32001
1.4326
1.45643
1.4093
1.32726
1.43094
1.45521
1.69906
1.64241
1.21981
1.27134
1.67306
1.66393
1.23167
2.45777
2.46426
2.36101
2.57117
2.27636
2.5864
2.35326
2.57886
2.28448
1.48751
1.65959
1.36339
1.62087
1.48427
1.66666
1.36651
1.59985
1.6931
1.5545
1.68819
1.59623
1.69982
1.55821
1.60217
1.65972
1.57714
1.67306
1.59766
1.66596
1.58175
1.68951
1.84126
1.65545
1.84768
1.68384
1.84866
1.66119
1.62853
1.75788
1.62948
1.79056
1.6222
1.76454
1.63517
1.54625
1.54861
1.5299
1.56512
1.3359
1.42981
1.45513
1.41501
1.34575
1.42932
1.45616
1.79178
1.72534
1.27003
1.3395
1.76938
1.74342
1.28331
2.48256
2.48818
2.38771
2.59873
2.30664
2.61827
2.38148
2.60447
2.3134
1.50151
1.6872
1.37662
1.64794
1.49768
1.69373
1.38033
1.61448
1.71904
1.5695
1.71444
1.61055
1.72497
1.57355
1.61956
1.68367
1.595
1.69774
1.61521
1.68911
1.59955
1.71045
1.86803
1.67762
1.87521
1.70555
1.87381
1.68273
1.65146
1.78264
1.65085
1.81253
1.64595
1.78792
1.65578
1.60292
1.61012
1.59002
1.62364
1.35667
1.42929
1.45815
1.42469
1.36846
1.4299
1.46118
1.87045
1.79543
1.32374
1.40352
1.8514
1.81064
1.33731
2.50401
2.50885
2.40878
2.61866
2.33166
2.64221
2.40393
2.62251
2.33713
1.51693
1.71232
1.39166
1.6728
1.51286
1.71799
1.39562
1.62954
1.74164
1.58528
1.73725
1.62559
1.74668
1.58935
1.63596
1.7043
1.61217
1.71889
1.63191
1.70888
1.61644
1.72832
1.88877
1.6972
1.89692
1.72424
1.89323
1.70158
1.67095
1.8022
1.66917
1.82977
1.6663
1.80632
1.67333
1.64743
1.66014
1.63733
1.67102
1.38097
1.43092
1.46501
1.43687
1.39401
1.43256
1.46977
1.93702
1.85488
1.37715
1.46143
1.92081
1.86773
1.39027
2.52249
2.52667
1.53251
1.73367
1.40731
1.69484
1.52849
1.73838
1.41129
1.64413
1.7607
1.60074
1.7564
1.64035
1.76488
1.6046
1.65094
1.72158
1.62797
1.73649
1.64728
1.72536
1.63183
1.74322
1.90467
1.71401
1.91387
1.73989
1.90808
1.71767
1.68717
1.81745
1.68453
1.84317
1.68331
1.82064
1.68798
1.68212
1.70023
1.67428
1.70889
1.40743
1.43451
1.47513
1.451
1.42108
1.43706
1.48129
1.9933
1.90543
1.42786
1.51254
1.97949
1.91625
1.44012
2.53848
2.54209
1.66429
1.73577
1.64206
1.75081
1.66106
1.73882
1.64547
1.75548
1.91676
1.72819
1.92702
1.75279
1.91936
1.73122
1.7005
1.82925
1.69724
1.85352
1.69733
1.8317
1.70008
1.70898
1.73206
1.70292
1.7389
1.43484
1.43986
1.48789
1.46644
1.44859
1.4432
1.49516
2.04091
1.94833
1.47464
1.55686
2.02914
1.95739
1.48584
2.5524
2.55556
1.7655
1.92593
1.74004
1.93722
1.76335
1.92791
1.74252
1.71139
1.83834
1.7077
1.86149
1.7088
1.84022
1.71003
1.72969
1.75718
1.72502
1.76256
1.46223
1.44669
1.50268
1.48259
1.47567
1.45066
1.51075
2.08118
1.98462
1.51699
1.59482
2.07114
1.99218
1.52709
2.56464
2.56743
1.7203
1.84535
1.71629
1.86765
1.71817
1.84679
1.71821
1.74566
1.77695
1.74206
1.78119
1.48884
1.45473
1.51893
1.4989
1.50169
1.4592
1.52753
2.11525
2.01526
1.55487
1.62704
2.10667
2.02153
1.56389
2.57551
2.57799
1.75803
1.79251
1.75523
1.79585
1.51416
1.46368
1.53609
1.51494
1.52622
1.46848
1.54495
2.14408
2.04105
1.58849
1.65425
2.13674
2.04623
1.5965
2.58524
2.58748
1.76765
1.80478
1.76548
1.80742
1.53783
1.47328
1.5537
1.5304
1.54901
1.4783
1.56264
2.1685
2.06275
1.61818
1.67717
2.16222
2.06701
1.62526
2.59401
2.59605
1.77521
1.81447
1.77349
1.81655
1.55963
1.48312
1.57128
2.18921
2.08102
1.64432
1.69645
2.18383
2.0845
1.65055
2.60198
2.60382
2.26121
2.44018
2.47254
2.19538
2.4576
2.18683
2.27091
2.23969
2.61724
2.47805
2.60381
2.46276
2.25135
1.62375
1.73459
1.75345
1.6027
1.74098
1.59749
1.62942
1.61026
1.73612
1.75144
1.61504
1.74068
1.6098
1.61582
1.55523
1.6983
1.67908
1.57478
1.66826
1.56885
1.56168
1.46189
1.63152
1.62367
1.34097
1.61205
1.32467
1.46984
1.31574
1.36752
1.34486
1.34049
1.32444
1.3566
1.25855
1.32017
1.31734
1.31127
1.3098
1.30993
1.26788
1.02196
1.0758
1.27956
1.12194
1.24982
1.11657
1.04187
1.41869
1.68601
1.61462
1.5039
1.15693
1.51692
1.1706
1.48952
1.16401
1.53399
1.72638
1.66913
1.64115
1.75532
1.50472
1.43216
1.80514
2.09267
1.50588
1.44168
1.81247
1.50439
2.10605
1.464
1.82815
1.45255
1.82015
1.50529
2.32432
2.3486
1.94389
2.33268
2.36004
2.63494
2.64527
2.42178
2.41395
1.94948
2.34838
2.38126
2.34071
2.37092
2.66418
2.65496
2.00547
2.11289
2.17232
2.42302
2.0024
2.12197
2.18016
2.00886
2.43745
2.13939
2.19633
2.13077
2.18813
2.0126
2.27395
2.62985
2.4927
2.26285
2.64162
2.50662
2.30012
2.50477
2.52371
2.23212
2.51209
2.2227
2.30986
2.28473
2.66281
2.53247
2.6526
2.5199
2.29499
2.28116
2.28456
2.1877
2.19699
2.27144
2.29358
2.19268
2.53114
2.57063
2.55868
2.54252
2.29098
2.20113
2.31161
2.20338
2.3027
2.19773
2.30053
1.0499
1.68845
1.68294
1.87166
1.87641
1.86537
1.86845
1.86949
1.85558
1.82952
1.8532
1.83968
1.79289
1.80779
1.80699
1.79194
1.80294
1.80444
1.82177
1.83319
1.82044
1.81329
1.82778
1.81641
1.75696
1.7798
1.76562
1.85374
1.86154
1.78938
1.78216
1.77404
1.87628
1.86907
1.00589
1.51885
1.37753
1.27375
1.37311
1.27294
1.00616
1.47073
1.57245
1.6234
1.35171
1.61622
1.35023
1.47235
1.47132
1.63466
1.62446
1.53794
1.6172
1.53588
1.47354
1.55658
1.62953
1.57081
1.63591
1.55455
1.63628
1.57376
1.57914
1.63741
1.65755
1.5395
1.6504
1.5372
1.58159
1.55879
1.64302
1.65018
1.58024
1.64321
1.57671
1.56151
1.5383
1.57455
1.60396
1.74685
1.53497
1.58197
1.60909
1.57189
1.62353
1.62602
1.55588
1.61905
1.55193
1.57596
1.5418
1.75723
1.59645
1.61987
1.58928
1.61439
1.54561
1.62731
1.76164
1.62039
1.7626
1.62139
1.77153
1.62603
1.64735
1.78242
1.79766
1.6256
1.78732
1.61957
1.6536
1.63315
1.77079
1.78988
1.63745
1.78086
1.63164
1.63918
1.48616
1.63497
1.3569
1.68158
1.47787
1.64569
1.3729
1.58187
1.73795
1.71829
1.59944
1.70921
1.59312
1.58885
1.49436
1.69652
1.66585
1.40364
1.65607
1.38833
1.50269
1.41662
1.38738
1.28917
1.32573
1.31346
1.32599
1.27819
1.33463
1.31652
1.08309
1.30876
1.12861
1.12824
1.06236
1.33721
1.13602
1.41144
1.45451
1.43355
1.43354
1.44428
1.47029
1.30083
1.32922
1.35403
1.32441
1.34417
1.3201
1.31289
1.10399
1.14668
1.39139
1.15345
1.36479
1.14444
1.12475
1.48853
1.51081
1.81909
1.69546
1.79375
1.72303
1.61953
1.22009
1.61885
1.20828
1.59541
1.19771
1.64721
1.8551
1.77507
1.7485
1.87688
1.50944
1.47658
1.83627
2.14603
1.50683
1.48932
1.84456
1.51261
2.15911
1.51656
1.86125
1.50303
1.85288
1.51663
2.35575
2.39104
1.96626
2.36275
2.40031
2.67278
2.68092
2.45099
2.44405
1.97158
2.37589
2.41729
2.36951
2.40904
2.6956
2.68848
2.02065
2.14765
2.20447
2.47669
2.01652
2.15568
2.21265
2.02484
2.48819
2.17069
2.22854
2.16331
2.22063
2.02914
2.31421
2.67229
2.54441
2.30488
2.68107
2.55564
2.33688
2.55589
2.56297
2.26805
2.55412
2.25933
2.34537
2.32314
2.69668
2.57631
2.68919
2.5663
2.33152
2.31921
2.32047
2.20894
2.21573
2.31005
2.32902
2.21498
2.57344
2.61211
2.60269
2.58264
2.32824
2.22064
2.34547
2.22686
2.33744
2.22073
2.33683
1.69368
1.05419
1.69864
1.8868
1.9115
1.89659
1.05555
1.70778
1.70333
1.92324
1.91442
1.90578
1.88266
1.90884
1.89507
1.86602
1.86747
1.87813
1.92087
1.91776
1.90677
1.87875
1.90035
1.88958
1.84529
1.85963
1.85672
1.83861
1.84173
1.84887
1.87094
1.87768
1.86751
1.85039
1.86782
1.85862
1.79001
1.81619
1.79756
1.88322
1.88983
1.82449
1.8118
1.80484
1.90218
1.89616
1.00753
1.38212
1.27483
1.5383
1.00679
1.38679
1.27624
1.00862
1.54495
1.3964
1.27982
1.39158
1.27788
1.00979
1.47871
1.63177
1.54008
1.65691
1.47587
1.6391
1.54275
1.47868
1.59985
1.65242
1.36059
1.6452
1.3579
1.48149
1.48158
1.66431
1.65369
1.54859
1.64642
1.54543
1.48491
1.56756
1.65723
1.58365
1.66409
1.5643
1.66419
1.5876
1.58976
1.66679
1.68615
1.55117
1.67914
1.5478
1.59309
1.57078
1.67107
1.67798
1.59556
1.67117
1.59132
1.57443
1.55358
1.60345
1.62543
1.78639
1.54948
1.61025
1.63105
1.58876
1.6526
1.65321
1.57281
1.64664
1.5683
1.59329
1.55766
1.79524
1.62327
1.6423
1.61687
1.6367
1.5619
1.65104
1.79834
1.64313
1.7935
1.64507
1.8065
1.64891
1.67202
1.82249
1.83357
1.6496
1.82525
1.64363
1.678
1.65681
1.80041
1.82147
1.66012
1.81413
1.6545
1.66257
1.51901
1.6753
1.41826
1.73621
1.51084
1.68418
1.43261
1.60918
1.77042
1.75071
1.62376
1.74328
1.61777
1.61585
1.52689
1.74793
1.70073
1.45942
1.69273
1.44619
1.53471
1.51754
1.49473
1.33785
1.36435
1.32915
1.34168
1.32531
1.3748
1.33457
1.16554
1.41694
1.1632
1.20342
1.14536
1.44139
1.1734
1.49428
1.53131
1.51325
1.51256
1.53888
1.55874
1.35051
1.34675
1.39629
1.34664
1.38555
1.3403
1.36316
1.18531
1.22205
1.48692
1.19506
1.46473
1.18408
1.20447
1.57395
1.59367
1.92881
1.79925
1.91037
1.82442
1.72306
1.28869
1.70536
1.25692
1.68563
1.24418
1.74727
1.95986
1.87062
1.84705
1.97531
1.52619
1.53092
1.86954
2.1966
1.52108
1.5448
1.87779
1.53171
2.2085
1.57337
1.89402
1.55944
1.88596
1.53771
2.38209
2.42506
1.98705
2.38792
2.43238
2.7022
2.70841
2.47665
2.4706
1.99186
2.39897
2.44576
2.39362
2.43926
2.71951
2.71413
2.03774
2.17765
2.23616
2.51914
2.03342
2.18436
2.24362
2.04198
2.52809
2.19669
2.2577
2.19065
2.25077
2.04622
2.34696
2.7036
2.58578
2.33951
2.70998
2.59464
2.36812
2.59514
2.5926
2.29959
2.58595
2.29215
2.37507
2.35406
2.72128
2.61086
2.71587
2.60303
2.36064
1.71198
1.05941
1.71595
1.92251
1.95423
1.93011
1.06061
1.72322
1.71969
1.96326
1.94388
1.93721
1.92809
1.95294
1.93777
1.91051
1.90871
1.92004
1.96238
1.95536
1.94686
1.9175
1.93742
1.92902
1.88726
1.90115
1.89625
1.87653
1.87384
1.88474
1.91008
1.91263
1.9047
1.8809
1.89979
1.89249
1.8185
1.84729
1.82487
1.90792
1.91337
1.85424
1.83678
1.83099
1.92343
1.91854
1.01275
1.40125
1.28194
1.56486
1.01125
1.40608
1.28432
1.01454
1.5714
1.41569
1.28961
1.41092
1.28685
1.01634
1.49187
1.6609
1.55167
1.6857
1.48817
1.66799
1.55519
1.49068
1.62779
1.68048
1.37316
1.67365
1.36969
1.49427
1.49544
1.69257
1.68182
1.56235
1.67498
1.55857
1.49939
1.58186
1.68475
1.59941
1.69095
1.57795
1.69128
1.60376
1.60323
1.69507
1.7128
1.56573
1.70645
1.56181
1.60704
1.58555
1.69733
1.70389
1.612
1.69773
1.60763
1.58959
1.57035
1.62946
1.64789
1.81978
1.56607
1.63542
1.65335
1.6065
1.6796
1.67794
1.59069
1.67209
1.58609
1.61095
1.5745
1.82712
1.64667
1.66404
1.64116
1.65879
1.57873
1.67356
1.8283
1.66549
1.8193
1.66811
1.83485
1.67085
1.69505
1.85509
1.86203
1.67227
1.85547
1.66682
1.70035
1.6788
1.82495
1.84675
1.68099
1.84093
1.67595
1.68389
1.54962
1.70843
1.4719
1.77867
1.54221
1.7156
1.48398
1.63448
1.79655
1.77691
1.64584
1.77097
1.64053
1.6404
1.55663
1.78764
1.72889
1.50621
1.7225
1.4953
1.56352
1.59444
1.57726
1.38837
1.40719
1.3532
1.36373
1.37582
1.41795
1.36029
1.24092
1.50802
1.20634
1.27666
1.22307
1.52801
1.21777
1.56172
1.59586
1.58088
1.57627
1.61043
1.62522
1.40083
1.36993
1.43935
1.37513
1.42877
1.36748
1.41309
1.25816
1.29392
1.56481
1.24092
1.54694
1.22932
1.27459
1.64874
1.66576
2.01698
1.89156
2.00413
1.91344
1.8121
1.35609
1.77845
1.31025
1.76185
1.29673
1.83276
2.04375
1.95292
1.93269
2.05435
1.55062
1.58796
1.90193
2.24197
1.54401
1.60165
1.90971
1.55755
2.25243
1.62929
1.92483
1.61599
1.91736
1.56462
2.40422
2.45185
2.0057
2.40913
2.4576
2.72446
2.7291
2.4989
2.49368
2.00998
2.4185
2.46809
2.41398
2.463
2.73736
2.73336
2.05441
2.20233
2.26432
2.55203
2.05034
2.20775
2.27068
2.05836
2.55888
2.21761
2.28256
2.21278
2.27676
2.06222
2.37269
2.72628
2.61826
2.3669
2.73088
2.62515
2.39339
2.62484
2.61447
2.32586
2.60973
2.31978
2.39888
2.37821
2.73901
2.63774
2.73513
2.63168
2.38328
1.72655
1.06401
1.72969
1.95011
1.98694
1.95595
1.06507
1.73542
1.73264
1.99381
1.96651
1.9614
1.96333
1.98737
1.97078
1.94533
1.94063
1.95272
1.99469
1.98429
1.97777
1.94737
1.96616
1.95967
1.92005
1.93365
1.92699
1.90665
1.89976
1.9131
1.94056
1.93958
1.9335
1.90537
1.92485
1.91916
1.84232
1.87301
1.84756
1.92805
1.93241
1.87866
1.85725
1.85255
1.94038
1.93652
1.02037
1.42043
1.29246
1.59039
1.01836
1.42508
1.29551
1.0226
1.59648
1.43416
1.3019
1.42967
1.29862
1.02479
1.50727
1.68853
1.56592
1.71184
1.50315
1.69505
1.56986
1.50514
1.65439
1.70632
1.38787
1.70014
1.38399
1.50914
1.51115
1.71789
1.70758
1.57756
1.70142
1.57354
1.51535
1.5975
1.70996
1.61586
1.71496
1.59338
1.71572
1.62021
1.61805
1.72051
1.73627
1.58145
1.73078
1.57737
1.62201
1.60126
1.7205
1.72669
1.62826
1.72137
1.62399
1.60533
1.58691
1.65195
1.66926
1.84731
1.5828
1.65699
1.67423
1.6237
1.70343
1.69942
1.60813
1.69441
1.60372
1.62791
1.59086
1.85328
1.66641
1.68387
1.66182
1.67919
1.59482
1.69349
1.85213
1.68575
1.84024
1.68878
1.85728
1.69044
1.71528
1.88106
1.88416
1.6925
1.87908
1.68776
1.71977
1.69803
1.84476
1.86656
1.69919
1.86203
1.69486
1.70235
1.57643
1.73503
1.51643
1.81088
1.57004
1.74071
1.52625
1.65656
1.81725
1.79769
1.66492
1.79301
1.66039
1.66162
1.58241
1.81761
1.75118
1.54415
1.74616
1.53539
1.58825
1.65167
1.63897
1.43702
1.4499
1.3828
1.38941
1.4252
1.46016
1.39084
1.30532
1.58169
1.2525
1.34309
1.29036
1.59759
1.26402
1.61511
1.64863
1.63648
1.62654
1.66347
1.67435
1.44864
1.39612
1.48015
1.40703
1.47034
1.39879
1.4598
1.31963
1.35828
1.62664
1.28668
1.61257
1.27542
1.33314
1.71292
1.72737
2.08808
1.97055
2.07936
1.9892
1.88755
1.4187
1.84035
1.36407
1.82636
1.35066
1.90513
2.11154
2.02248
2.00531
2.11867
1.57927
1.6432
1.93217
2.28156
1.57194
1.65597
1.93931
1.58687
2.29058
1.68153
1.95313
1.66936
1.94632
1.59433
2.423
2.47288
2.02228
2.42717
2.47741
2.74103
2.74448
2.51808
2.51359
2.02608
2.43523
2.48568
2.43136
2.48165
2.7506
2.74763
2.06957
2.22208
2.2881
2.57721
2.06595
2.22637
2.29334
2.07307
2.58241
2.23414
2.3031
2.23034
2.29838
2.07645
2.39257
2.74259
2.64347
2.38813
2.74586
2.6488
2.41317
2.64712
2.62911
2.34717
2.62593
2.3423
2.4174
2.39682
2.75162
2.6585
2.74886
2.65383
2.4007
1.73804
1.06803
1.74051
1.97128
2.01178
1.97576
1.06895
1.74502
1.74282
2.01698
1.98387
1.97994
1.99041
2.01401
1.99612
1.97225
1.96496
1.97795
2.01966
2.00646
2.00147
1.97006
1.98825
1.98328
1.94526
1.95866
1.95055
1.93017
1.92024
1.93516
1.96392
1.96011
1.9555
1.92463
1.94421
1.93984
1.86172
1.89374
1.86592
1.94402
1.94743
1.89823
1.87364
1.86991
1.95362
1.95063
1.02944
1.43855
1.3052
1.61379
1.02715
1.44282
1.30862
1.03191
1.61925
1.45107
1.31558
1.44702
1.31205
1.03429
1.52348
1.71354
1.58128
1.73454
1.51927
1.71916
1.58531
1.52071
1.67859
1.72866
1.40347
1.72349
1.39947
1.52477
1.52735
1.73968
1.7297
1.593
1.72459
1.58902
1.53149
1.61308
1.7319
1.63194
1.73551
1.60907
1.73679
1.63611
1.63305
1.74241
1.75621
1.59708
1.75161
1.59311
1.63693
1.61668
1.74017
1.746
1.64365
1.74155
1.63964
1.62055
1.60237
1.6708
1.68854
1.86962
1.5986
1.67496
1.69289
1.63978
1.72367
1.71751
1.62432
1.71335
1.62027
1.64363
1.60597
1.8744
1.68268
1.70131
1.67893
1.69727
1.60955
1.71046
1.87073
1.70326
1.85688
1.70653
1.87472
1.70724
1.73243
1.90149
1.90116
1.70997
1.89725
1.70595
1.73613
1.7143
1.86043
1.88186
1.7146
1.87837
1.71097
1.71787
1.59908
1.75601
1.55233
1.83488
1.59374
1.76043
1.56017
1.67521
1.83345
1.81394
1.68098
1.81031
1.6772
1.67943
1.60406
1.83985
1.76859
1.5744
1.7647
1.56744
1.60891
1.69375
1.68445
1.48107
1.48984
1.41511
1.41635
1.4707
1.49913
1.4234
1.35814
1.63987
1.29775
1.40085
1.34603
1.65228
1.3086
1.65696
1.69104
1.68133
1.66588
1.70237
1.7103
1.49117
1.42307
1.51697
1.43963
1.50826
1.43144
1.50073
1.36968
1.41382
1.67485
1.32956
1.66394
1.31921
1.3805
1.76712
1.77922
2.14655
2.03719
2.14077
2.053
1.95138
1.47494
1.89299
1.41566
1.88118
1.40294
1.96633
2.16742
2.08099
2.06643
2.17205
1.60954
1.69432
1.9598
2.31557
1.60205
1.70584
1.96628
1.6173
2.3233
1.7289
1.97878
1.71802
1.97263
1.62474
2.43913
2.48947
2.03704
2.44273
2.49306
2.75331
2.75588
2.53465
2.53077
2.04043
2.44975
2.49966
2.44639
2.49644
2.76043
2.75821
2.08284
2.23765
2.30765
2.59637
2.07971
2.24102
2.31189
2.08587
2.6003
2.24711
2.31979
2.24412
2.316
2.08875
1.74707
1.98753
2.01113
2.03454
2.01547
1.99291
1.98331
1.99723
1.96441
1.97763
1.96841
1.94829
1.93617
1.95209
1.98159
1.97561
1.97214
1.93956
1.95896
1.95565
1.87718
1.91007
1.88049
1.95643
1.95904
1.91356
1.88653
1.88362
1.96376
1.96149
1.45502
1.31907
1.0368
1.53929
1.73461
1.59662
1.7536
1.53526
1.73922
1.60051
1.62778
1.75034
1.64703
1.75262
1.62404
1.75438
1.65089
1.64742
1.76067
1.77274
1.61179
1.76896
1.6081
1.65105
1.63108
1.75646
1.76194
1.65774
1.75831
1.65408
1.63462
1.61632
1.68625
1.70539
1.88748
1.61295
1.68963
1.70912
1.65437
1.74042
1.73245
1.63886
1.72904
1.63524
1.65782
1.61952
1.89128
1.69586
1.71634
1.69284
1.71292
1.62267
1.72459
1.88505
1.718
1.86989
1.72137
1.88811
1.7213
1.74666
1.91741
1.91411
1.72475
1.91113
1.72141
1.74965
1.72779
1.87263
1.89355
1.72738
1.89088
1.72439
1.73068
1.61785
1.77235
1.58089
1.85256
1.61345
1.77576
1.58709
1.69067
1.84602
1.82653
1.69431
1.82374
1.69119
1.69415
1.62195
1.85621
1.78205
1.59834
1.77906
1.59284
1.62592
1.72438
1.71764
1.51881
1.52553
1.44754
1.44282
1.51004
1.53365
1.45554
1.40039
1.6851
1.33963
1.4498
1.39078
1.69467
1.3494
1.68952
1.72478
1.71708
1.69642
1.73062
1.73635
1.52735
1.44923
1.54914
1.47095
1.54161
1.46322
1.53536
1.40954
1.46066
1.71204
1.36804
1.70365
1.35889
1.41806
1.81229
1.82228
2.19543
2.09327
2.19181
2.10668
2.00535
1.52432
1.93768
1.46353
1.92777
1.45179
2.0181
2.21417
2.13029
2.11792
2.21691
1.63976
1.74043
1.9848
2.34464
1.63244
1.75066
1.99063
1.64737
2.35124
1.77117
2.00187
1.76157
1.99635
1.65453
2.45318
2.05025
2.45633
2.54905
2.54567
2.05331
2.46252
2.45956
1.88919
1.92269
1.89158
1.96588
1.96784
1.62861
1.69873
1.71987
1.90167
1.62567
1.70143
1.723
1.6314
1.90466
1.7064
1.72913
1.70399
1.72627
1.63413
1.73619
1.89597
1.73019
1.87993
1.73359
1.8983
1.73289
1.75834
1.92975
1.92393
1.73713
1.92166
1.73438
1.76074
1.73883
1.88204
1.90243
1.73788
1.90039
1.73543
1.74117
1.63324
1.78495
1.60347
1.86551
1.62963
1.78756
1.60836
1.70335
1.85572
1.83624
1.70529
1.8341
1.70273
1.70621
1.63658
1.8682
1.79239
1.61726
1.79011
1.61291
1.63982
1.74648
1.74164
1.55044
1.55651
1.47835
1.46778
1.54315
1.56346
1.48575
1.4337
1.71991
1.37692
1.49059
1.42616
1.72726
1.38545
1.71469
1.75144
1.74536
1.72
1.75096
1.75505
1.55754
1.47373
1.57666
1.49986
1.57026
1.49282
1.56416
1.44087
1.49958
1.74058
1.40163
1.73415
1.39371
1.44753
1.84945
1.85761
2.23669
2.14059
2.23473
2.15202
2.05102
1.56699
1.97553
1.50703
1.96723
1.49638
2.0619
2.25366
2.17204
2.16147
2.25494
1.66894
1.78147
2.00729
2.36952
1.66198
1.79047
2.01251
1.67622
2.37519
1.80861
2.02259
1.80019
2.01764
1.68298
2.46558
2.06217
2.46836
2.56167
2.55871
2.06493
2.47388
2.47126
1.74567
1.90425
1.74018
1.88764
1.74357
1.90602
1.74238
1.74785
1.88925
1.90915
1.74645
1.9076
1.74446
1.74973
1.64579
1.79463
1.62131
1.87501
1.64286
1.79661
1.62518
1.71372
1.86319
1.84371
1.71431
1.84207
1.71221
1.71606
1.64852
1.877
1.80032
1.63223
1.79858
1.62879
1.65117
1.76228
1.75883
1.57661
1.58291
1.50657
1.49071
1.57061
1.58877
1.51324
1.45973
1.74661
1.4093
1.52425
1.45386
1.75225
1.41662
1.73409
1.77243
1.76766
1.73819
1.76547
1.76839
1.58246
1.4961
1.59988
1.52586
1.59451
1.51958
1.58789
1.46533
1.53164
1.76248
1.43044
1.75753
1.4237
1.47052
1.87975
1.88638
2.27183
2.18072
2.27114
2.19051
2.08965
1.60345
2.00749
1.54604
2.00059
1.53648
2.09895
2.2873
2.20759
2.19851
2.28748
1.69657
1.81778
2.02745
2.39092
1.69005
1.82566
2.03212
1.70344
2.39583
1.84169
2.04114
1.83431
2.03673
1.70972
2.47664
2.07299
2.47912
2.57286
2.57023
2.07551
2.48411
2.48175
1.65603
1.80205
1.63545
1.88204
1.65364
1.80353
1.63853
1.72219
1.86896
1.8494
1.72173
1.84823
1.72
1.72411
1.65826
1.88353
1.8062
1.64415
1.80504
1.6414
1.66041
1.77355
1.77109
1.59809
1.60513
1.53183
1.51136
1.59318
1.61003
1.53772
1.48003
1.76712
1.43698
1.55188
1.47546
1.77147
1.44318
1.74907
1.78896
1.7852
1.75224
1.77583
1.77791
1.60289
1.51619
1.61932
1.54885
1.61484
1.54333
1.60733
1.48441
1.55794
1.77937
1.4549
1.77554
1.44921
1.48845
1.90433
1.90971
2.302
2.21496
2.30229
2.22341
2.12234
1.63435
2.03442
1.58072
2.02871
1.5722
2.1303
2.31621
2.23808
2.23021
2.31552
1.7224
1.84985
2.04551
2.40948
1.71636
1.85675
2.04968
1.72882
2.41377
1.87091
2.05776
1.86446
2.05381
1.73462
2.48661
2.08288
2.48885
2.58286
2.5805
2.08519
2.49339
2.49125
1.66435
1.80744
1.64672
1.88727
1.66242
1.80836
1.64917
1.78162
1.77985
1.61567
1.6237
1.55408
1.52973
1.61167
1.62777
1.55922
1.4959
1.78296
1.46044
1.5745
1.49232
1.78633
1.46566
1.76067
1.80198
1.79901
1.76314
1.78328
1.78479
1.6196
1.53401
1.63549
1.56891
1.63177
1.56412
1.62322
1.49933
1.57946
1.79249
1.47556
1.78951
1.47077
1.5025
1.92423
1.92859
2.32811
2.24437
2.32916
2.25171
2.15002
1.66042
2.05708
1.61138
2.05237
1.60381
2.15685
2.34122
2.26439
2.25753
2.33987
1.74636
1.87819
2.06167
2.42569
1.7408
1.88423
2.0654
1.75233
2.42945
1.89676
2.07263
1.89111
2.06911
1.75766
2.49568
2.53616
2.09196
2.49772
2.53763
2.78305
2.59187
2.58974
2.09409
2.50186
2.54042
2.49991
2.53904
2.78449
2.78375
1.7875
1.7862
1.63003
1.63913
1.57345
1.54589
1.62676
1.6425
1.5779
1.50836
1.7953
1.48024
1.59299
1.50555
1.79795
1.48461
1.76972
1.81225
1.80991
1.77165
1.78872