/*--------------------------------*- C++ -*----------------------------------*\
  =========                 |
  \\      /  F ield         | OpenFOAM: The Open Source CFD Toolbox
   \\    /   O peration     | Website:  https://openfoam.org
    \\  /    A nd           | Version:  10
     \\/     M anipulation  |
\*---------------------------------------------------------------------------*/
FoamFile
{
    format      ascii;
    class       volScalarField;
    location    "2000";
    object      nut;
}
// * * * * * * * * * * * * * * * * * * * * * * * * * * * * * * * * * * * * * //

dimensions      [0 2 -1 0 0 0 0];

internalField   nonuniform List<scalar> 
8808
(
2.55208
2.73746
2.32643
1.25716
2.66926
3.11557
3.08811
2.329
1.11997
0.532892
2.52789
3.15998
3.46929
3.10012
2.41556
2.06997
1.86406
3.51093
3.43744
0.701014
0.698072
0.453556
0.441422
0.193388
0.88408
1.43545
1.73443
1.81877
1.75726
1.26211
0.457482
0.182537
0.883878
1.51188
2.10203
2.55228
2.73887
2.33517
1.26878
0.13988
0.547869
1.32763
2.00585
2.66885
3.11589
3.08956
2.32685
1.1213
0.547744
0.127901
0.304356
1.13999
1.79522
2.52755
3.15947
3.46895
3.10184
2.4141
2.07491
1.87604
3.51042
3.4373
0.259808
0.613395
0.714828
0.713075
0.465234
0.452151
0.193016
0.883158
1.43482
1.73657
1.81996
1.76115
1.27589
0.481414
0.18212
0.883857
1.51172
2.10238
2.55288
2.74013
2.34389
1.28415
0.139793
0.547
1.32661
2.00555
2.66873
3.11675
3.09136
2.3247
1.12428
0.561017
0.12788
0.303707
1.13959
1.7947
2.52726
3.1591
3.46903
3.10387
2.412
2.08106
3.51058
3.4368
0.26002
0.622862
0.727595
0.726451
0.476306
0.462029
0.19264
0.881814
1.43328
1.73897
1.82211
1.76626
1.29175
0.504834
0.181724
0.883861
1.51173
2.10278
2.55338
2.74064
2.34886
1.30225
0.139705
0.54614
1.32575
2.00535
2.66884
3.11781
3.09353
2.32195
1.12828
0.572359
0.127858
0.303048
1.13917
1.79428
2.52712
3.15916
3.46977
3.10573
2.40935
2.08807
3.51086
3.43582
0.260345
0.633542
0.73915
0.738221
0.48643
0.470925
0.192266
0.880088
1.43139
1.737
1.8251
1.77232
1.30874
0.527266
0.181347
0.883879
1.51188
2.10319
2.55365
2.74039
2.34881
1.31597
0.139617
0.545306
1.32488
2.00519
2.66904
3.11871
3.0961
2.31912
1.13288
0.581768
0.127836
0.302389
1.13873
1.79387
2.52701
3.1592
3.46989
3.10727
2.40667
2.09558
3.51093
3.43426
0.260794
0.644848
0.749469
0.748491
0.495404
0.478746
0.191898
0.878119
1.42901
1.73496
1.82876
1.77904
1.3122
0.548404
0.180989
0.883906
1.51209
2.10352
2.55373
2.73945
2.34749
1.3245
0.139531
0.54449
1.32411
2.00505
2.66927
3.11975
3.09906
2.31664
1.13786
0.127814
0.301735
1.13826
1.79347
2.52694
3.15943
3.47146
3.10813
2.40416
3.51084
0.26136
0.656267
0.7586
0.757403
0.503192
0.485482
0.875975
1.42655
1.73317
1.83296
1.78619
1.31729
0.568061
1.51236
2.1038
2.55357
2.7381
2.34644
1.33489
1.32334
2.00498
2.66944
3.12037
3.10243
2.31483
0.765115
0.509854
0.491202
1.73183
1.83757
1.79356
1.32433
0.586132
2.10394
2.55313
2.73639
2.34416
1.34702
2.0049
2.66972
3.1212
3.1062
2.31332
0.515486
0.496008
1.84245
1.80102
1.33329
0.602585
2.55269
2.73459
2.34295
1.36079
2.6698
3.12147
3.11041
2.31249
0.500022
1.80845
1.344
0.617449
2.73224
2.34058
1.37595
3.11509
2.31189
1.35616
0.6308
2.3405
1.3923
3.1159
2.31226
1.16625
1.36979
0.64275
2.3382
1.40963
3.11647
2.31296
1.17253
1.38448
0.653438
1.42851
2.31446
1.17877
0.52873
1.41411
1.34479
0.450299
0.450684
1.30216
1.28944
0.438681
0.274803
1.21914
0.991646
0.887178
0.409648
0.258154
0.451366
0.756264
0.358738
1.79668
1.19059
1.26236
0.363182
1.79663
1.18605
0.814614
0.824309
0.551094
1.8449
1.53736
1.12019
0.561306
1.84507
1.53541
1.41114
1.3485
0.54383
1.40927
1.35877
1.27983
1.29396
0.268611
0.398161
0.408048
0.427018
0.421704
0.436323
0.431904
0.444569
0.435887
0.442539
0.259765
0.574306
0.272158
0.650169
0.611323
0.693328
0.892754
1.1189
0.713925
1.25337
1.34445
0.711435
0.725343
1.25077
1.34702
0.472263
1.34316
1.31104
0.709408
0.479662
1.34713
1.3139
0.453125
1.30456
1.29285
0.461931
0.460144
1.30341
1.29649
0.2772
1.22402
1.00109
0.449587
0.28462
1.22907
1.01061
0.893124
0.416233
0.910329
0.43592
0.261358
0.271734
0.771964
0.475326
0.787817
0.365111
1.7974
1.18291
1.27597
0.371111
1.79892
1.17992
0.827371
0.835366
0.565085
1.84305
1.53382
1.12287
0.574445
1.84109
1.53287
1.40826
1.36263
0.55756
1.4083
1.37287
1.29913
1.31206
0.268945
0.401294
0.269924
0.410187
0.411243
0.430396
0.420414
0.440277
0.435185
0.447175
0.444811
0.455165
0.444729
0.451586
0.576296
0.271772
0.648469
0.259954
0.582938
0.271404
0.646899
0.696653
0.890834
1.11629
0.620408
0.706091
0.889098
1.11405
0.729042
1.24808
1.34994
0.724486
0.739232
1.24585
1.35283
0.48267
1.3484
1.31306
0.72319
0.490033
1.3484
1.31253
0.462567
1.30234
1.30034
0.473172
0.469312
1.30163
1.30056
0.286943
1.23431
1.02016
0.459687
0.293945
1.23768
1.02733
0.916451
0.442346
0.933789
0.461159
0.275235
0.286146
0.795183
0.498932
0.802747
0.373349
1.8012
1.17827
1.29285
0.379938
1.80412
1.17673
0.837956
0.844729
0.57789
1.83947
1.5324
1.12666
0.586046
1.83798
1.53253
1.40891
1.3766
0.569408
1.4104
1.38606
0.270253
0.412978
0.271185
0.420768
0.423303
0.443379
0.431482
0.452297
0.447832
0.457625
0.456557
0.465088
0.453731
0.460381
0.585244
0.271049
0.645278
0.260248
0.592634
0.270715
0.643844
0.709119
0.887343
1.11178
0.630851
0.717641
0.885819
1.10999
0.742517
1.24359
1.35196
0.736349
0.751461
1.24188
1.35173
0.493013
1.34845
1.31241
0.735352
0.499936
1.34919
1.31262
0.471622
1.30136
1.30111
0.483555
0.477902
1.30143
1.302
0.296084
1.23917
1.03199
0.46884
0.302494
1.24116
1.03724
0.939837
0.467204
0.956681
0.484697
0.289648
0.300325
0.811648
0.521645
0.821147
0.382319
1.80772
1.17641
1.31161
0.388878
1.81185
1.1762
0.846982
0.852889
0.589052
1.83695
1.53308
1.13112
0.595912
1.83601
1.53414
1.41226
1.38948
0.579296
1.41484
1.3979
0.271497
0.423183
0.272355
0.429865
0.43402
0.455044
0.441155
0.462859
0.459247
0.46733
0.466937
0.474082
0.462402
0.468573
0.59512
0.270397
0.642399
0.260667
0.602843
0.270104
0.641173
0.720366
0.884332
1.10822
0.642071
0.727996
0.883148
1.10701
0.75434
1.24014
1.3513
0.746974
0.762119
1.23913
1.3517
0.502749
1.34983
1.31324
0.745983
0.509033
1.35122
1.31416
0.480018
1.30195
1.30323
0.492824
0.48566
1.30278
1.30479
0.304395
1.24337
1.04253
0.476931
0.310064
1.246
1.04851
0.962496
0.490275
0.978411
0.506285
0.303686
0.313797
0.831595
0.543126
0.842479
0.391205
1.81656
1.177
1.31924
0.397466
1.82171
1.17793
0.854901
0.860183
0.598478
1.83555
1.53558
1.13601
0.604099
1.83517
1.53738
1.41753
1.40098
0.58738
1.42102
1.40839
0.272644
0.431923
0.273421
0.437597
0.443355
0.465229
0.44952
0.471948
0.469272
0.476061
0.475917
0.482
0.47041
0.475964
0.605393
0.269831
0.639986
0.261205
0.613114
0.269586
0.639025
0.730431
0.882015
1.10577
0.653508
0.737216
0.881271
1.10521
0.764626
1.23802
1.35185
0.756395
0.771382
1.23769
1.35286
0.511604
1.35253
1.31547
0.75522
0.517138
1.35448
1.31706
0.487553
1.30401
1.30667
0.500909
0.492477
1.30552
1.30882
0.311705
1.24881
1.05435
0.483935
0.316571
1.25199
1.06081
0.983838
0.511369
0.998529
0.525872
0.316929
0.326239
0.853984
0.563166
0.865821
0.399657
1.82731
1.17973
1.32879
0.405452
1.83322
1.18159
0.862019
0.866826
0.606263
1.83525
1.5395
1.14119
0.61079
1.83538
1.54188
0.273683
0.43934
0.451409
0.473961
0.47791
0.483718
0.483566
0.488837
0.477591
0.482468
0.615615
0.739377
0.880603
1.10464
0.773569
1.23727
1.35368
0.764686
0.779443
1.2376
1.35524
0.519449
1.35635
1.31898
0.763217
0.524218
1.35881
1.32115
0.494129
1.30734
1.31122
0.507846
0.498335
1.3094
1.31385
0.31798
1.25529
1.06706
0.489901
0.322095
1.25889
1.07379
1.00355
0.530465
1.01702
0.543493
0.3291
0.337521
0.878
0.581638
0.890361
0.407473
1.83947
1.18425
1.34022
0.412742
1.84594
1.18692
0.868526
0.872961
0.483882
0.526275
1.36116
1.32356
0.53031
1.32618
0.499756
1.31171
1.31667
0.513727
0.503302
1.3142
1.31967
0.323264
1.26256
1.08028
0.494925
0.326741
1.26646
1.08709
1.02164
0.547611
1.03397
0.559232
0.340094
0.347606
0.902829
0.598493
0.915315
0.414588
1.85268
1.19033
1.35333
0.41933
1.85955
1.19365
0.874552
0.878683
0.504497
1.31688
1.32281
0.507469
1.32606
0.327695
1.27038
1.09368
0.499119
0.330613
1.27447
1.10041
1.03824
0.562903
1.04952
0.573214
0.349859
0.356482
0.927813
0.613748
0.940218
0.420995
1.86664
1.19767
1.36799
0.425247
1.87381
1.20153
0.880185
0.884066
0.331392
1.27855
1.10703
0.502601
0.33383
1.28273
1.11357
1.05346
0.576472
1.0638
0.585582
0.358428
0.364223
0.952588
0.627468
0.96475
0.426743
1.88115
1.20604
1.38386
0.430556
1.88853
1.21033
0.885488
0.889152
0.334463
1.12017
1.06745
0.588463
1.07694
0.596489
0.365897
0.370922
0.976875
0.639755
0.988688
0.431899
1.89605
1.21525
1.40089
0.435311
1.90359
1.21988
0.890509
0.893985
1.84532
1.17019
1.8471
1.08032
0.599032
1.08909
0.606105
0.372351
0.376692
1.00053
0.650745
1.01173
0.436536
1.91129
1.22523
1.4186
0.439581
1.91905
1.22993
0.895284
0.898621
1.84903
1.17644
1.85059
1.09224
0.608351
0.377914
1.02369
0.440728
1.92703
1.23583
0.899872
1.8528
1.25615
0.873018
1.7641
1.34112
0.425769
0.427454
0.828306
0.522564
0.881875
0.5364
0.82394
0.526272
0.886669
0.543816
0.556563
0.540697
0.560017
1.86985
0.96874
0.716929
0.9381
0.704533
0.966535
0.720517
0.940213
0.916006
0.66387
0.952244
0.701915
0.91254
0.667318
0.955583
0.777069
0.449343
0.784148
0.456128
0.77261
0.452073
0.78856
0.714282
0.431437
0.739002
0.444222
0.711036
0.434661
0.742412
0.325083
0.368138
0.320341
0.372624
0.883904
1.76733
1.3442
1.26869
0.895225
1.77107
1.34835
0.323008
0.29136
0.63407
0.46335
0.317611
0.298601
0.641207
0.432474
0.434067
0.843687
0.536946
0.898934
0.550911
0.839985
0.540134
0.903208
0.555763
0.569799
0.552751
0.573015
1.88237
0.777266
0.655491
0.769712
0.615659
0.776661
0.658493
0.771626
0.973022
0.730931
0.947615
0.718109
0.971792
0.734206
0.949975
0.929948
0.677214
0.967749
0.716513
0.926615
0.680289
0.970918
0.789806
0.461667
0.797129
0.467639
0.785668
0.464158
0.801269
0.728196
0.442633
0.752106
0.454744
0.725272
0.445711
0.755168
0.344882
0.386974
0.339813
0.391954
0.89769
1.77514
1.35355
1.28358
0.899754
1.77973
1.35696
0.339469
0.312469
0.664908
0.487217
0.334093
0.319378
0.672286
0.438842
0.440351
0.856468
0.549238
0.913772
0.563727
0.853408
0.551915
0.917454
0.779665
0.666861
0.777619
0.625491
0.778633
0.670205
0.77971
0.97761
0.743556
0.957787
0.730582
0.976109
0.746478
0.960193
0.940846
0.689064
0.982349
0.72948
0.938466
0.69176
0.985215
0.801085
0.473048
0.808894
0.47849
0.797329
0.475261
0.812692
0.740673
0.453145
0.76375
0.464388
0.738158
0.456004
0.766418
0.364561
0.406822
0.35968
0.411768
0.902219
1.78456
1.35618
1.30028
0.905659
1.78991
1.35675
0.355577
0.33188
0.695863
0.51043
0.350464
0.338398
0.703073
0.444813
0.44623
0.86697
0.559499
0.926338
0.574584
0.864451
0.561684
0.92948
0.783796
0.679101
0.786036
0.636387
0.782432
0.682645
0.788185
0.983395
0.754774
0.967943
0.741825
0.981716
0.757353
0.970273
0.950185
0.699417
0.995664
0.740862
0.947848
0.701756
0.998176
0.810871
0.483243
0.819289
0.488337
0.807486
0.485138
0.822746
0.751575
0.462728
0.773858
0.473017
0.749464
0.465326
0.776155
0.3829
0.425909
0.378411
0.430528
0.909657
1.79542
1.35676
1.31052
0.914604
1.80146
1.35825
0.370632
0.349396
0.725758
0.53256
0.365761
0.355488
0.732618
0.450357
0.451663
0.875626
0.566672
0.936905
0.583547
0.873539
0.567934
0.93959
0.789256
0.691268
0.794548
0.647779
0.787682
0.693573
0.796672
0.990215
0.764687
0.977676
0.75184
0.988435
0.766962
0.979855
0.959705
0.708413
1.00759
0.750777
0.957448
0.710439
1.00976
0.819301
0.492139
0.828384
0.497014
0.816249
0.493706
0.831536
0.761025
0.471213
0.782582
0.480564
0.759275
0.47352
0.78456
0.399446
0.443425
0.395415
0.447589
0.920121
1.80759
1.359
1.31468
0.926483
1.81417
1.36128
0.384361
0.364947
0.754069
0.553341
0.379763
0.370687
0.760502
0.455443
0.456635
0.795601
0.700133
0.80287
0.659171
0.793934
0.70217
0.804914
0.997621
0.773443
0.986767
0.760686
0.995823
0.775449
0.988764
0.969206
0.716227
1.0182
0.759374
0.967039
0.717984
1.02004
0.826579
0.499744
0.836338
0.504516
0.823801
0.500999
0.839228
0.769211
0.478553
0.790132
0.487039
0.76777
0.480563
0.791843
0.41408
0.45904
0.410528
0.46272
0.933392
1.82074
1.36318
1.32068
0.940989
1.8277
1.36632
0.396928
0.378795
0.780604
0.572608
0.392631
0.384215
0.78659
0.460084
0.461166
0.97857
0.723024
1.0276
0.76681
0.976435
0.724553
1.02916
0.832899
0.506151
0.84332
0.510911
0.830347
0.507129
0.845989
0.77632
0.484792
0.796702
0.49252
0.775142
0.486527
0.798191
0.4268
0.47271
0.423719
0.475912
0.948987
1.83457
1.36894
1.32865
0.957488
1.84177
1.37281
0.408419
0.39106
0.80535
0.590273
0.404405
0.396192
0.810899
0.464309
0.465292
0.838431
0.511496
0.849481
0.516305
0.836061
0.512235
0.851969
0.782521
0.490035
0.802454
0.497116
0.781563
0.491526
0.803757
0.437718
0.484522
0.435074
0.487283
0.966296
1.8488
1.37661
1.33849
0.975485
1.85611
1.38123
0.418938
0.401894
0.828376
0.606323
0.41518
0.406762
0.83351
0.468152
0.46905
0.787955
0.494397
0.807517
0.500939
0.787183
0.495688
0.808665
0.44699
0.494641
0.444756
0.497006
0.984851
1.86321
1.38562
1.34988
0.994431
1.87054
1.39097
0.428549
0.411454
0.849774
0.620798
0.425016
0.416082
0.854517
0.471653
0.472475
0.454824
0.503262
0.452948
0.505263
1.00415
1.87762
1.39641
1.36268
1.01395
1.8849
1.4025
0.437314
0.419877
0.869646
0.633786
0.433981
0.424282
0.87402
0.474848
0.475602
0.46145
0.510581
0.459838
0.512271
1.02394
1.89198
1.40785
1.37625
1.03354
1.89929
1.41467
0.445307
0.427276
0.88809
0.645406
0.44214
0.43148
0.892122
0.477775
0.478471
0.467021
0.516794
0.465669
0.518236
1.0442
1.90646
1.42266
0.452572
0.43378
0.905222
0.655791
0.449539
0.437816
0.908941
0.480478
0.481118
0.815034
0.525147
0.518583
0.877679
0.514638
0.87276
0.819651
0.686182
0.3835
0.582729
0.381555
0.579364
0.690153
0.76572
0.447729
0.445767
0.781821
0.442957
0.777377
0.770241
0.761766
0.448412
0.446917
0.754237
0.444457
0.75094
0.766023
0.703572
0.435845
0.428953
0.735531
0.42575
0.731995
0.706907
0.633453
0.272274
0.396175
0.481079
0.392818
0.475048
0.637726
0.311443
0.363928
0.359971
0.315829
0.207473
0.211442
0.532646
0.881809
0.655988
0.758728
0.64959
0.753971
0.53842
0.355333
0.40305
0.22715
0.578188
0.222968
0.571993
0.362294
0.255064
0.308243
0.374563
0.309848
0.445535
0.287649
0.626145
0.280356
0.619325
0.315048
0.31377
0.381158
0.375396
0.316714
0.903471
0.61843
0.628709
0.359941
0.898593
0.625391
0.632134
0.907028
0.36161
0.637836
0.638555
0.631088
0.63528
0.912227
0.510184
0.528147
0.817951
0.511524
0.530257
0.370927
0.372412
0.430796
0.429166
0.821305
0.514068
0.534602
0.512644
0.532456
0.375387
0.373964
0.993341
0.649941
0.919793
0.554303
0.990456
0.653119
0.924295
0.995605
0.558207
0.659041
0.932279
0.656117
0.927967
0.9985
0.697593
0.385455
0.586038
0.693963
0.387437
0.589481
0.832285
0.54047
0.533461
0.895189
0.530011
0.890653
0.836309
0.701066
0.391276
0.596086
0.389373
0.592724
0.704364
0.88118
0.919326
1.23541
1.28438
0.876084
0.924478
1.2403
0.546762
0.566657
0.56329
0.54985
0.886179
1.28959
0.934177
1.25048
0.929499
1.24578
0.890884
0.268291
0.337405
0.336275
0.394954
0.377128
0.374775
0.404761
0.418447
0.414985
0.423546
0.421882
0.418477
0.428186
0.425121
0.431661
0.432526
0.439134
0.435729
0.428516
0.438403
0.435013
0.441771
0.44191
0.438781
0.42522
0.438103
0.427238
0.308502
0.309658
0.440237
0.431257
0.429196
0.311986
0.310793
0.596941
0.572351
0.50016
0.624023
0.499201
0.62402
0.598093
0.77648
0.609302
0.653072
0.767878
0.650276
0.766119
0.776819
0.865866
0.689981
0.670498
0.892925
0.667626
0.89234
0.867963
0.978134
0.719107
0.970532
0.717794
0.975788
0.722695
0.973357
0.970274
0.708034
0.727525
0.944965
0.724093
0.942714
0.971336
0.981327
0.721688
0.729736
0.980357
0.726293
0.977538
0.983779
0.837739
0.547536
0.807705
0.474492
0.834888
0.550251
0.811734
0.919631
0.705774
0.673983
0.963325
0.670728
0.96006
0.923044
0.840572
0.477439
0.555451
0.818196
0.552898
0.814267
0.843417
0.77255
0.450066
0.757281
0.455415
0.768391
0.452485
0.760508
0.779299
0.459425
0.458216
0.795041
0.455606
0.790773
0.783588
0.774796
0.457874
0.457941
0.766542
0.455606
0.763442
0.778797
0.646525
0.398929
0.486948
0.279741
0.6424
0.402256
0.492631
0.71829
0.446884
0.440265
0.748953
0.437108
0.745724
0.721378
0.65102
0.28212
0.408223
0.503434
0.404958
0.498136
0.654935
0.219453
0.215447
0.55006
0.662555
0.763849
0.898665
0.544276
0.668823
0.76791
0.376096
0.231436
0.584829
0.422846
0.369253
0.235871
0.591287
0.32991
0.382091
0.377289
0.334867
0.223417
0.22738
0.555863
0.904717
0.681294
0.771741
0.675217
0.769544
0.561555
0.382892
0.429386
0.244849
0.604677
0.240317
0.598093
0.389533
0.264752
0.268159
0.32548
0.382405
0.32266
0.388795
0.325789
0.469471
0.309194
0.656681
0.302107
0.649355
0.331213
0.331621
0.397067
0.390281
0.334178
0.921433
0.643283
0.641555
0.366972
0.916047
0.649806
0.64468
0.925382
0.369083
0.66131
0.650529
0.655004
0.64754
0.930842
0.515272
0.536803
0.830095
0.516742
0.538927
0.376881
0.378247
0.437256
0.435709
0.832893
0.519422
0.543119
0.517946
0.541073
0.380953
0.379666
1.00371
0.661795
0.935776
0.568043
1.00081
0.664488
0.939884
1.00594
0.571682
0.669491
0.946971
0.667016
0.943129
1.00874
0.71052
0.393136
0.599206
0.70752
0.394954
0.602451
0.847017
0.554621
0.546281
0.910601
0.543349
0.906646
0.850368
0.71339
0.398402
0.608484
0.396701
0.605414
0.716114
0.899906
0.938819
1.2559
1.30333
0.895538
0.943133
1.26043
0.558554
0.579019
0.575988
0.56144
0.904186
1.30819
0.95123
1.26975
0.947343
1.26554
0.908177
0.338533
0.26927
0.339598
0.379434
0.404343
0.381631
0.269605
0.341665
0.340666
0.407314
0.385832
0.383789
0.421813
0.414379
0.425159
0.425179
0.433775
0.428473
0.417429
0.431574
0.428381
0.437031
0.434786
0.431635
0.441668
0.438478
0.44497
0.444883
0.449934
0.447929
0.441644
0.451293
0.448117
0.452476
0.453732
0.450799
0.433234
0.447078
0.435315
0.313142
0.314345
0.449247
0.439319
0.437263
0.316676
0.315501
0.60053
0.50138
0.623829
0.578446
0.599255
0.502547
0.624039
0.601788
0.58062
0.505258
0.624546
0.50394
0.624154
0.603149
0.872601
0.673054
0.892878
0.699867
0.870384
0.676141
0.893727
0.777427
0.617941
0.664232
0.775581
0.661038
0.77357
0.778237
0.87508
0.703038
0.682131
0.895072
0.678836
0.894023
0.877347
0.989618
0.733186
0.984552
0.732502
0.987094
0.736487
0.987347
0.973807
0.721358
0.740519
0.955047
0.737427
0.952659
0.97516
0.992931
0.735987
0.742888
0.994148
0.73976
0.991448
0.995442
0.849043
0.557948
0.820628
0.484866
0.846236
0.560354
0.824457
0.933394
0.719969
0.686207
0.978194
0.683328
0.975183
0.936407
0.851783
0.487904
0.564961
0.830393
0.562702
0.826735
0.854495
0.784758
0.460999
0.76936
0.464781
0.780912
0.463243
0.772327
0.791694
0.470872
0.469851
0.807136
0.467496
0.803187
0.79562
0.786687
0.467157
0.468363
0.777761
0.466221
0.774973
0.790329
0.662967
0.410832
0.508573
0.289386
0.65926
0.413986
0.513498
0.731902
0.457206
0.45097
0.760978
0.447991
0.758124
0.734615
0.667053
0.291601
0.419537
0.522799
0.416495
0.518258
0.670507
0.235071
0.231209
0.571798
0.68752
0.77362
0.922102
0.566736
0.693419
0.776103
0.402487
0.249344
0.611555
0.448736
0.3961
0.25388
0.618176
0.349834
0.401947
0.396912
0.354831
0.238756
0.242407
0.576222
0.928192
0.705096
0.781075
0.699425
0.77835
0.581585
0.408772
0.454977
0.262804
0.631543
0.258323
0.625003
0.414858
0.27891
0.282428
0.342621
0.398667
0.340384
0.40571
0.342365
0.493222
0.329127
0.687776
0.322421
0.680463
0.347615
0.348793
0.414496
0.407325
0.350685
0.940329
0.66629
0.653267
0.37547
0.934856
0.6724
0.656135
0.944332
0.377813
0.683111
0.661524
0.677181
0.658761
0.949765
0.520631
0.545165
0.840232
0.522094
0.547113
0.382281
0.383485
0.443342
0.441886
0.842631
0.524693
0.550884
0.523271
0.549052
0.385838
0.38472
1.01365
0.671812
0.949988
0.580459
1.01092
0.674089
0.953594
1.01571
0.583696
0.678308
0.959688
0.676218
0.956349
1.01829
0.721205
0.400019
0.611254
0.718724
0.401588
0.614149
0.859201
0.56694
0.557045
0.923703
0.554613
0.920325
0.861955
0.723583
0.404504
0.619415
0.403069
0.616726
0.725838
0.342671
0.270565
0.343606
0.387841
0.415666
0.38973
0.270887
0.34541
0.344545
0.418269
0.393324
0.391587
0.434625
0.426121
0.437645
0.43779
0.446463
0.440774
0.428837
0.443349
0.440512
0.449392
0.446415
0.443605
0.454292
0.450849
0.457316
0.456473
0.46023
0.459276
0.453708
0.463006
0.460149
0.462587
0.46454
0.461879
0.441245
0.456038
0.443272
0.317814
0.318963
0.458135
0.447131
0.445154
0.321182
0.32007
0.605923
0.506771
0.624779
0.587683
0.60449
0.508203
0.625362
0.607314
0.590104
0.51132
0.626638
0.509825
0.625897
0.608787
0.882193
0.684913
0.895617
0.712027
0.879891
0.688375
0.896879
0.780353
0.62809
0.676377
0.783917
0.672899
0.781793
0.781551
0.884721
0.714895
0.694819
0.899147
0.691232
0.897754
0.887004
1.00125
0.745983
0.996387
0.745562
0.998765
0.748959
0.998744
0.978905
0.733529
0.752081
0.965251
0.749337
0.962888
0.980501
1.00447
0.748632
0.75467
1.00347
0.751875
1.0011
1.00686
0.859782
0.567174
0.832529
0.495068
0.85716
0.569301
0.836056
0.943331
0.732533
0.696925
0.991839
0.694422
0.989169
0.945691
0.862327
0.49798
0.573367
0.841365
0.571377
0.83802
0.86482
0.795553
0.471234
0.780252
0.473699
0.792092
0.473262
0.782874
0.802597
0.481508
0.480361
0.817869
0.478308
0.814268
0.806143
0.797128
0.475922
0.477908
0.787627
0.476011
0.785184
0.800394
0.677596
0.421928
0.527203
0.298329
0.67438
0.424856
0.53139
0.744003
0.466609
0.4608
0.771453
0.458065
0.768991
0.746298
0.681212
0.300356
0.429914
0.53929
0.427115
0.535446
0.684172
0.249374
0.245905
0.591859
0.710905
0.783562
0.945366
0.586213
0.716375
0.786576
0.426608
0.267116
0.638297
0.473173
0.420838
0.271437
0.644738
0.369239
0.421329
0.416525
0.37394
0.252689
0.255962
0.596668
0.951291
0.727176
0.792822
0.721946
0.789568
0.602575
0.432266
0.478979
0.279736
0.657582
0.27559
0.651327
0.43771
0.293295
0.296744
0.358338
0.416056
0.356792
0.423248
0.35828
0.516196
0.347176
0.718019
0.340859
0.710984
0.363277
0.364407
0.431802
0.424736
0.365618
0.959137
0.687727
0.664056
0.38443
0.953751
0.693504
0.666726
0.963061
0.386796
0.703589
0.671755
0.697961
0.66917
0.968369
0.525866
0.552709
0.848943
0.527254
0.554422
0.386973
0.388004
0.449002
0.447643
0.851057
0.52973
0.557715
0.528392
0.556125
0.38999
0.389046
1.02277
0.68026
0.962228
0.591196
1.02027
0.682182
0.965349
1.0246
0.593986
0.685732
0.970531
0.68397
0.96765
1.02694
0.730063
0.405849
0.621793
0.728004
0.407146
0.62429
0.869211
0.577303
0.565322
0.934729
0.563848
0.931852
0.871481
0.73204
0.409533
0.62877
0.408365
0.626479
0.733913
0.346286
0.271783
0.347088
0.395036
0.425498
0.396631
0.272085
0.348638
0.347899
0.42773
0.399662
0.398203
0.446027
0.436491
0.44868
0.449071
0.457767
0.451708
0.438854
0.453648
0.451176
0.460323
0.456652
0.454187
0.465666
0.461924
0.468349
0.46699
0.469717
0.469501
0.464436
0.473328
0.470825
0.471828
0.474155
0.471795
0.44895
0.464568
0.45086
0.322246
0.323313
0.466502
0.454422
0.452598
0.32534
0.324329
0.611724
0.513017
0.627265
0.597697
0.610218
0.514555
0.628163
0.613167
0.600233
0.517867
0.630077
0.516306
0.62906
0.614678
0.891811
0.697726
0.900186
0.722973
0.889543
0.701353
0.901719
0.784982
0.639152
0.688852
0.792436
0.685387
0.7903
0.786456
0.894286
0.725542
0.707981
0.904772
0.704299
0.903152
0.896494
1.01233
0.757419
1.00547
0.756985
1.01002
0.760045
1.00784
0.985217
0.744463
0.762303
0.975112
0.759881
0.972871
0.986954
1.01537
0.759668
0.765082
1.01289
0.762623
1.01052
1.01755
0.869654
0.575318
0.843184
0.5046
0.867267
0.577186
0.846399
0.952861
0.743536
0.706242
1.00411
0.704074
1.00179
0.955149
0.871973
0.507303
0.580751
0.851099
0.579009
0.848056
0.874225
0.804916
0.480519
0.789786
0.481894
0.801812
0.48228
0.792072
0.812034
0.491069
0.489587
0.827272
0.487858
0.823996
0.815232
0.806165
0.483902
0.486367
0.796187
0.484753
0.794064
0.809098
0.690325
0.43203
0.543038
0.306408
0.687586
0.434674
0.54658
0.754541
0.474973
0.469572
0.780498
0.467115
0.778382
0.756452
0.693505
0.30818
0.439137
0.55329
0.436647
0.550034
0.696014
0.262141
0.259071
0.613607
0.732432
0.79587
0.967757
0.607487
0.737563
0.79937
0.448167
0.2837
0.66401
0.495751
0.443045
0.28764
0.670083
0.387141
0.439294
0.434896
0.391404
0.265045
0.267913
0.618633
0.973365
0.747467
0.806668
0.742688
0.802993
0.623754
0.453179
0.501072
0.295122
0.682112
0.291396
0.676283
0.457979
0.307169
0.310432
0.372453
0.433189
0.371542
0.440124
0.372932
0.53801
0.363313
0.746764
0.357387
0.740128
0.377642
0.378243
0.448167
0.441393
0.378883
0.977479
0.707911
0.674127
0.393238
0.972242
0.713404
0.676637
0.981262
0.395505
0.722931
0.681368
0.71758
0.678932
0.986403
0.530836
0.559302
0.856635
0.53214
0.560773
0.390941
0.391795
0.454203
0.452959
0.858546
0.534467
0.563603
0.533212
0.562247
0.393442
0.39267
1.03094
0.687368
0.972649
0.600206
1.02869
0.688987
0.975346
1.03255
0.602571
0.691966
0.979748
0.690483
0.977257
1.03465
0.737428
0.410624
0.63077
0.735715
0.411657
0.632882
0.877472
0.585803
0.570183
0.944004
0.569094
0.941543
0.879349
0.739074
0.413541
0.636634
0.412634
0.63471
0.740632
0.34939
0.272903
0.350072
0.401106
0.433893
0.402442
0.273178
0.351392
0.350767
0.435787
0.404986
0.403763
0.455966
0.445494
0.45827
0.458962
0.467585
0.461269
0.447534
0.462555
0.460419
0.469772
0.465564
0.463417
0.475624
0.471599
0.477952
0.476292
0.478179
0.478499
0.47376
0.482224
0.480072
0.480027
0.482538
0.480484
0.45607
0.472377
0.457806
0.326304
0.327258
0.47411
0.46099
0.459355
0.329063
0.328166
0.617642
0.519641
0.631036
0.607987
0.61613
0.521206
0.632172
0.619079
0.610529
0.524547
0.634549
0.523
0.633338
0.620571
0.901115
0.710651
0.906113
0.732753
0.898949
0.713071
0.907806
0.790832
0.650567
0.697996
0.800824
0.695838
0.798746
0.792454
0.903479
0.735042
0.717694
0.911341
0.715444
0.909616
0.905558
1.02259
0.76751
1.015
0.766918
1.0205
0.769815
1.01738
0.992322
0.75418
0.771334
0.984371
0.769199
0.9823
0.994111
1.0254
0.769259
0.774241
1.02254
0.772086
1.02018
1.02735
0.878595
0.58246
0.852627
0.513214
0.876445
0.584091
0.855556
0.962477
0.753108
0.714335
1.01502
0.712458
1.01305
0.964671
0.880691
0.51566
0.587201
0.85971
0.585684
0.856936
0.882713
0.813011
0.488693
0.798049
0.48919
0.810213
0.490164
0.800043
0.820164
0.499448
0.497507
0.835491
0.496101
0.832499
0.82306
0.813978
0.490962
0.493676
0.803607
0.492349
0.801759
0.816631
0.701335
0.440961
0.556487
0.313445
0.699017
0.44329
0.559493
0.76367
0.482246
0.477186
0.788317
0.475027
0.786493
0.765245
0.704131
0.314969
0.447149
0.565214
0.44497
0.562446
0.70625
0.273286
0.270615
0.632868
0.752383
0.810295
0.988696
0.628409
0.756952
0.814122
0.467169
0.298651
0.688107
0.516338
0.462678
0.302154
0.693717
0.403215
0.455397
0.451476
0.407006
0.275795
0.278274
0.637291
0.993899
0.765945
0.82209
0.761623
0.818211
0.641518
0.47156
0.521165
0.308722
0.704797
0.305451
0.699454
0.475747
0.320159
0.323158
0.384947
0.449272
0.384544
0.455908
0.386352
0.558425
0.377643
0.773755
0.372077
0.767561
0.390811
0.390504
0.463336
0.456835
0.390661
0.995199
0.726982
0.683599
0.401545
0.990129
0.732206
0.685971
0.998834
0.403651
0.7412
0.690433
0.736115
0.68813
1.00381
0.535501
0.564973
0.863583
0.536723
0.566225
0.39424
0.39493
0.458951
0.45782
0.865339
0.538899
0.568645
0.537724
0.567494
0.396282
0.395662
1.03821
0.693333
0.981506
0.607616
1.03619
0.694695
0.983845
1.03961
0.609605
0.69719
0.98759
0.695945
0.985427
1.0415
0.352035
0.406198
0.464537
0.45325
0.46651
0.467553
0.475967
0.46954
0.484172
0.479901
0.486159
0.484372
0.485552
0.486278
0.481733
0.489771
0.487945
0.487144
0.489731
0.487969
0.462441
0.479329
0.463973
0.329913
0.330754
0.48085
0.46673
0.465328
0.332324
0.331543
0.526326
0.635783
0.621994
0.90989
0.719922
0.912944
0.741428
0.907878
0.722033
0.9147
1.03193
0.776377
1.0247
0.775556
1.03007
0.778395
1.02705
0.999931
0.762745
0.779308
0.992916
0.777426
0.991034
1.00171
1.03451
0.777603
0.782272
1.0322
0.780389
1.02988
1.03624
0.886648
0.58869
0.860979
0.520805
0.884718
0.590107
0.863657
0.971976
0.761401
0.721371
1.02471
0.719744
1.02303
0.974097
0.888538
0.522991
0.592806
0.867339
0.591492
0.864798
0.890352
0.820028
0.495719
0.805213
0.495523
0.817487
0.496911
0.806962
0.82719
0.506662
0.504202
0.842698
0.503092
0.839947
0.829836
0.820758
0.497058
0.499886
0.810065
0.498822
0.808443
0.823178
0.710855
0.448674
0.567955
0.319445
0.708898
0.450711
0.570517
0.77158
0.488463
0.483677
0.795111
0.481805
0.79353
0.772871
0.713326
0.320739
0.453998
0.575418
0.452099
0.573055
0.715113
0.282882
0.280595
0.649741
0.770409
0.82609
1.00799
0.645726
0.774527
0.830013
0.483747
0.311788
0.710315
0.534935
0.479845
0.314834
0.715429
0.417362
0.469552
0.466118
0.420674
0.285031
0.287126
0.653726
1.01279
0.782635
0.838206
0.778753
0.834319
0.657518
0.487562
0.539276
0.320495
0.725534
0.317675
0.720687
0.491186
0.33203
0.334751
0.396103
0.464058
0.396126
0.470438
0.398662
0.577298
0.390386
0.798946
0.385114
0.793196
0.402808
0.401461
0.47722
0.470972
0.401277
1.0123
0.744985
0.692533
0.409187
1.00739
0.749945
0.694773
1.0158
0.411123
0.758408
0.698978
0.753586
0.696806
1.02062
0.539865
0.869958
0.541012
0.463276
0.462248
0.871592
0.543048
0.541946
0.467674
0.485382
0.468557
0.333055
0.333778
0.893893
0.5941
0.868386
0.527383
0.892161
0.595326
0.870849
0.895598
0.529323
0.597662
0.874127
0.596526
0.871785
0.897225
0.826146
0.501663
0.811454
0.500925
0.823814
0.50261
0.812996
0.8333
0.512794
0.509802
0.849051
0.50895
0.8465
0.835745
0.826675
0.502232
0.5051
0.815709
0.504265
0.814278
0.828904
0.719113
0.455245
0.57778
0.324522
0.71746
0.457015
0.579971
0.778456
0.493712
0.489142
0.801051
0.487531
0.799673
0.779508
0.721307
0.325577
0.459785
0.584185
0.458139
0.582163
0.722815
0.291041
0.289104
0.664891
0.786663
0.842396
1.0257
0.6613
0.790352
0.846265
0.498103
0.323117
0.730578
0.551602
0.494736
0.325726
0.735205
0.429618
0.481815
0.478843
0.432475
0.292859
0.294634
0.668461
1.03012
0.797621
0.854413
0.794154
0.850635
0.671843
0.501399
0.555481
0.330542
0.744373
0.328142
0.739998
0.504518
0.342715
0.345133
0.406198
0.477555
0.406518
0.483686
0.409913
0.59456
0.401639
0.822396
0.39665
0.81707
0.413795
0.411323
0.489843
0.483836
0.410861
1.02882
0.761923
0.700953
0.416123
1.02406
0.766618
0.703063
1.03218
0.41788
0.774549
0.707014
0.769989
0.704971
1.03686