/*--------------------------------*- C++ -*----------------------------------*\
  =========                 |
  \\      /  F ield         | OpenFOAM: The Open Source CFD Toolbox
   \\    /   O peration     | Website:  https://openfoam.org
    \\  /    A nd           | Version:  10
     \\/     M anipulation  |
\*---------------------------------------------------------------------------*/
FoamFile
{
    format      ascii;
    class       volScalarField;
    location    "2000";
    object      omega;
}
// * * * * * * * * * * * * * * * * * * * * * * * * * * * * * * * * * * * * * //

dimensions      [0 0 -1 0 0 0 0];

internalField   nonuniform List<scalar> 
8808
(
0.524065
0.535013
0.65647
1.21523
0.425777
0.427908
0.480579
0.677698
1.65155
4.39131
0.361346
0.365514
0.391762
0.487703
0.723995
0.998396
1.15855
0.464603
0.536401
2.31556
2.30473
3.65349
3.77286
0.87486
0.886816
0.872005
0.845267
0.855595
0.884582
1.1173
2.59525
0.652301
0.527049
0.543727
0.536965
0.52388
0.534426
0.652631
1.19343
0.648166
0.421813
0.420802
0.430427
0.425662
0.427784
0.48017
0.675956
1.64226
4.38541
0.653292
0.369039
0.339157
0.35363
0.361297
0.365464
0.391757
0.487592
0.722768
0.993917
1.15219
0.464444
0.535912
1.99987
2.52121
2.31115
2.29739
3.65948
3.77043
0.874072
0.88448
0.869647
0.842408
0.853185
0.88085
1.10376
2.60526
0.652058
0.526793
0.543564
0.536825
0.523674
0.533814
0.64894
1.17575
0.64814
0.421582
0.420634
0.430318
0.425546
0.427641
0.479651
0.673839
1.63649
4.3765
0.653296
0.368907
0.339049
0.353565
0.361243
0.365409
0.391724
0.48743
0.721533
0.990335
0.464263
0.535403
2.0019
2.52169
2.31063
2.29395
3.66083
3.76492
0.873353
0.882196
0.86742
0.839806
0.851085
0.877732
1.09276
2.62031
0.651836
0.526548
0.543399
0.536671
0.52345
0.533187
0.645413
1.16211
0.648117
0.42136
0.42047
0.430209
0.42543
0.427488
0.479041
0.671511
1.63296
4.36488
0.653302
0.368778
0.33894
0.353497
0.361187
0.365366
0.391662
0.487218
0.72037
0.987597
0.464062
0.534888
2.00453
2.5235
2.31104
2.29193
3.6578
3.75671
0.8727
0.880042
0.865403
0.837518
0.849344
0.875202
1.08431
2.63269
0.651634
0.526308
0.543229
0.536503
0.523213
0.532557
0.642086
1.15209
0.648099
0.42115
0.420314
0.430102
0.425314
0.427315
0.478357
0.669122
1.63072
4.35204
0.65331
0.368652
0.338829
0.353429
0.361129
0.365304
0.391577
0.486956
0.719331
0.985618
0.463849
0.534386
2.00714
2.52467
2.31086
2.28994
3.65136
3.74677
0.872111
0.878088
0.863659
0.835581
0.847972
0.873228
1.07818
2.63979
0.651449
0.52607
0.543053
0.536323
0.522969
0.531939
0.639008
1.14504
0.648083
0.42095
0.420163
0.429998
0.425199
0.42713
0.477621
0.666793
1.62917
0.653318
0.36853
0.338718
0.353358
0.36107
0.365239
0.391465
0.486658
0.718445
0.463629
2.00941
2.52433
2.30949
2.28737
3.64272
3.73607
0.876388
0.862223
0.834007
0.846945
0.871751
1.07403
2.64142
0.542869
0.536136
0.522726
0.531347
0.636208
1.14034
0.420019
0.429896
0.425085
0.426936
0.476854
0.664616
2.28406
3.633
3.72535
0.832783
0.846224
0.870695
1.07143
2.63844
0.535946
0.522488
0.530791
0.633727
1.13738
0.429791
0.424968
0.42674
0.476073
0.662655
3.62301
3.71508
0.845757
0.869974
1.06994
2.63193
0.522259
0.530279
0.631563
1.13563
0.424849
0.426536
0.475295
0.660953
3.70558
0.869502
1.06916
2.62297
0.529815
0.629731
1.13465
0.474529
0.659532
1.06876
2.61247
0.628192
1.1341
0.473774
0.65838
1.62367
1.06844
2.60112
0.626916
1.13366
0.473003
0.657452
1.62241
1.06796
2.58942
1.13301
0.656603
1.62095
4.39284
1.52605
1.63305
3.65146
3.76419
1.24869
1.25878
3.77307
5.17061
1.29881
1.47178
1.48946
2.66717
4.52914
2.59561
1.78811
4.63814
0.878632
1.44225
1.20395
4.65274
0.875251
1.43664
2.37924
2.37193
4.01135
1.00947
1.32426
1.64543
4.00973
1.00798
1.3217
1.52179
1.62975
4.38723
1.51842
1.62338
1.71346
1.70475
3.72525
4.47626
4.35934
4.11581
4.03182
3.9456
4.04245
3.94802
3.93483
3.94115
1.99951
2.58902
1.03482
1.16433
2.5217
2.36835
1.24018
1.19806
2.28174
1.16188
1.13269
2.31179
2.27484
1.15944
1.1299
3.3921
1.14836
1.20528
2.29888
3.39725
1.14524
1.20284
3.76366
1.24629
1.25625
3.65841
3.76178
1.24428
1.25419
5.1737
1.29513
1.463
3.77129
5.17586
1.29209
1.45577
1.48184
2.66683
1.46415
2.67391
4.54782
4.59
1.77266
2.60226
1.76156
4.65768
0.871733
1.43161
1.18419
4.66873
0.86831
1.4273
2.36979
2.36654
4.00891
1.00654
1.3195
1.63892
4.00573
1.00525
1.31777
1.51571
1.62116
4.37915
1.51369
1.61757
1.70157
1.69654
3.72527
4.47892
3.72497
4.48234
4.36231
4.11734
4.36684
4.11789
4.04464
3.94828
4.04731
3.94696
3.94254
3.9447
2.58841
1.03357
1.16174
2.00123
2.5882
1.03241
1.15939
2.36776
1.23774
1.19578
2.52136
2.36734
1.23556
1.19377
2.27306
1.15723
1.1274
2.31064
2.26966
1.15529
1.12521
3.39858
1.14244
1.2007
2.29476
3.40163
1.14
1.1989
3.7609
1.24261
1.25249
3.66103
3.75741
1.24129
1.25116
5.17453
1.28957
1.44984
3.76657
5.16505
1.28756
1.44503
1.459
2.67756
1.44795
2.69034
4.59919
4.61462
1.75369
2.61707
1.74846
4.67153
0.864864
1.42357
1.16855
4.67516
0.861616
1.42051
2.36526
2.36367
4.00418
1.00407
1.31634
1.63493
3.99892
1.00304
1.31528
1.5121
1.61609
4.36807
1.51103
1.61434
3.72478
4.48212
3.72388
4.47823
4.36705
4.11689
4.36432
4.11098
4.04703
3.94591
4.04327
3.94089
3.94482
3.94321
2.58848
1.03131
1.15724
2.00378
2.58969
1.0303
1.15536
2.36736
1.23362
1.19203
2.52308
2.36772
1.23198
1.19058
2.26867
1.15361
1.12329
2.31101
2.26674
1.1522
1.12165
3.40204
1.13785
1.19737
2.29254
3.40235
1.13602
1.19614
3.75589
1.24026
1.2501
3.65903
3.75052
1.23953
1.24935
5.16051
1.28594
1.44111
3.75895
5.14335
1.28469
1.43797
1.44473
2.69421
1.43857
2.70458
4.61607
4.61235
1.74505
2.6305
1.7431
4.6754
0.858427
1.41795
1.1568
4.67234
0.855506
1.41594
2.36273
2.36167
3.99679
1.00211
1.31442
1.63244
3.99018
1.00134
1.31383
1.51017
1.61334
4.35539
1.50967
1.61265
3.72351
4.47603
3.72219
4.4675
4.36248
4.10823
4.35474
4.09824
4.04121
3.93876
4.03318
3.93099
3.94215
3.93743
2.59012
1.02936
1.15369
2.00644
2.59114
1.02853
1.15229
2.36775
1.23059
1.18938
2.52452
2.36766
1.22949
1.18845
2.266
1.15105
1.12027
2.31106
2.26431
1.15015
1.11914
3.40183
1.13446
1.19513
2.29062
3.39956
1.13317
1.19435
3.74844
1.23901
1.24879
3.65331
3.74169
1.2387
1.24845
5.13687
1.28371
1.43543
3.74936
5.11561
1.283
1.43339
1.43668
2.70699
1.43379
2.7121
4.60872
4.59302
1.74207
2.63899
1.74178
4.67064
0.852674
1.41433
1.14834
4.66259
0.850131
1.41314
2.36081
2.35982
3.98775
1.00065
1.31334
1.63076
3.98062
1.0001
1.31304
1.50925
1.61191
4.3425
1.50904
1.61168
3.72171
4.46416
3.72013
4.45317
4.35159
4.09449
4.3409
4.08245
4.03004
3.9281
4.01962
3.91874
3.93549
3.92863
2.59134
1.02776
1.15109
2.00881
2.59141
1.0271
1.15014
2.36743
1.22864
1.18776
2.5246
2.36637
1.22805
1.18729
2.26355
1.14948
1.11822
2.31001
2.2615
1.14902
1.11752
3.39829
1.1321
1.19373
2.28823
3.39411
1.13126
1.19329
3.73925
1.23854
1.24823
3.64511
3.73171
1.23851
1.24815
5.10827
1.28246
1.43172
3.73877
5.08577
1.28209
1.43035
1.43277
2.71265
1.43182
2.71245
4.58633
4.56382
1.7418
2.64194
1.74208
4.65955
0.847703
1.41222
1.14255
4.64835
0.845584
1.41161
2.35894
2.35783
3.97816
0.999615
1.31277
1.62949
3.97114
0.999235
1.31262
3.71959
4.44929
4.33706
4.07828
4.01594
3.91547
4.00454
3.90546
3.92614
3.91807
2.59124
2.36578
1.22766
1.18702
2.26058
1.14874
1.11698
2.30769
2.25799
1.14863
1.11661
3.39234
1.13057
1.19294
2.28511
3.38697
1.13005
1.19272
3.7291
1.23857
1.24814
3.63557
3.7213
1.23871
1.2482
5.07831
1.2818
1.42917
3.72799
5.05636
1.28162
1.42815
1.43124
2.71137
1.43117
2.70685
4.5555
4.52966
1.74232
2.64001
1.74254
4.64451
0.843586
1.41116
1.13878
4.63165
0.841895
1.41092
2.35691
2.35563
3.91529
3.38492
1.12964
1.19255
3.37896
1.19246
3.7187
1.23887
1.24827
3.62557
3.71108
1.23907
1.24838
5.04931
1.28145
1.4272
3.71758
5.02887
1.28134
1.42632
1.43076
2.70456
1.43091
2.69699
4.52063
4.49371
1.74253
2.63428
1.74237
4.62746
0.840317
1.41074
1.13649
4.61403
0.839028
1.41069
2.35464
2.3532
3.70861
1.23926
1.24846
3.70146
1.24855
5.02243
1.2812
1.42542
3.70787
5.00401
1.28107
1.42455
1.4305
2.69389
1.43049
2.68444
4.48463
4.45821
1.7419
2.62584
1.74121
4.60981
0.837829
1.41064
1.13516
4.59653
0.836896
1.41066
2.35217
2.35056
4.99828
1.2809
1.42361
3.69905
4.9821
1.28072
1.42266
1.42999
2.68087
1.42963
2.67045
4.4495
4.42454
1.74017
2.61564
1.73892
4.59245
0.836034
1.41062
1.13444
4.57974
0.835405
1.41062
2.3495
2.34777
4.97713
1.42162
1.429
2.66667
1.42822
2.65592
4.41641
4.39343
1.73731
2.60446
1.73551
4.5759
0.834815
1.41053
1.13398
4.56398
0.834418
1.41044
2.34667
2.34483
0.997824
1.62394
0.997782
1.42744
2.65211
1.4262
2.64142
4.38601
4.3652
1.73336
2.59281
1.73104
4.56041
0.834024
1.41022
1.13348
4.54937
0.833756
1.40997
2.34368
2.34165
0.997689
1.62249
0.997596
1.42526
2.63764
4.35851
1.72836
4.54606
0.833422
1.40953
2.34047
0.997401
1.12498
1.49909
0.816833
1.095
4.82358
4.82035
2.7653
4.68489
2.49945
4.3901
2.76784
4.68042
2.49639
4.54697
4.35999
4.54923
4.35819
1.15516
1.62813
2.28252
1.63511
2.31389
1.62997
2.28071
1.63306
1.71196
2.41772
1.62243
2.30245
1.71453
2.41564
1.62035
2.11214
3.76112
2.05067
3.65536
2.11642
3.76139
2.04651
2.20513
3.80805
2.13902
3.77249
2.20555
3.80734
2.1376
3.91181
3.34045
3.89737
3.35185
1.48229
0.813454
1.0884
1.11023
1.46806
0.81015
1.08202
4.06717
4.57109
1.85911
2.59698
4.04569
4.57065
1.85213
4.81339
4.81136
2.75966
4.6678
2.4933
4.38363
2.76086
4.66376
2.49169
4.53717
4.35258
4.53983
4.35041
1.14966
1.78626
2.47443
1.75838
2.52104
1.78745
2.47429
1.75678
1.62103
2.27764
1.62717
2.31083
1.62182
2.27724
1.62619
1.70379
2.41136
1.6118
2.2964
1.70519
2.4105
1.61096
2.10932
3.76085
2.04681
3.66031
2.11255
3.76019
2.04382
2.20073
3.80423
2.13477
3.76933
2.20007
3.80267
2.13437
3.9517
3.38123
3.9445
3.38894
1.45615
0.807032
1.076
1.09794
1.44637
0.804021
1.07033
4.12365
4.57213
1.83456
2.6094
4.10747
4.56899
1.83207
4.80625
4.80443
2.75668
4.6517
2.49117
4.37391
2.75749
4.64775
2.49002
1.78281
2.47485
1.75329
2.52211
1.78313
2.47522
1.75258
1.61739
2.27704
1.62301
2.31075
1.61741
2.27712
1.62281
1.69924
2.40865
1.60548
2.2935
1.69987
2.40829
1.60549
2.10902
3.75659
2.04656
3.66056
2.11185
3.75501
2.04406
2.19871
3.7969
2.13352
3.76308
2.19763
3.79454
2.13352
3.96391
3.40532
3.96316
3.40861
1.43846
0.801212
1.06513
1.08823
1.4322
0.798538
1.06037
4.1572
4.56244
1.82512
2.62425
4.14644
4.55722
1.82528
4.79935
4.79738
2.75408
4.636
2.49006
4.36183
2.75491
4.63221
2.48892
1.7821
2.47635
1.75135
2.52389
1.78182
2.47664
1.75127
1.61615
2.27755
1.62148
2.31111
1.61566
2.27763
1.62176
1.69687
2.40725
1.60194
2.29158
1.69706
2.40697
1.60247
2.10939
3.74876
2.04765
3.65656
2.11217
3.74645
2.04526
2.19733
3.78668
2.13327
3.75434
2.19617
3.78378
2.13331
3.95545
3.41298
3.95907
3.41278
1.42732
0.796073
1.05614
1.08098
1.42363
0.793748
1.05236
4.17185
4.54576
1.82395
2.63542
4.16522
4.53948
1.82538
4.79168
4.78948
2.75092
4.62111
2.48868
4.3489
2.75194
4.61763
2.48739
1.78301
2.47708
1.75151
2.52473
1.78243
2.47701
1.75182
1.61625
2.27758
1.62148
2.31066
1.6155
2.2774
1.62203
1.69567
2.4058
1.60002
2.28948
1.69565
2.40539
1.60082
2.10951
3.73848
2.04881
3.64945
2.11239
3.73571
2.04631
2.19566
3.77474
2.1329
3.74413
2.1946
3.77159
2.13282
3.93478
3.40844
3.94069
3.40592
1.42086
0.791618
1.0491
1.07589
1.41887
0.789649
1.04627
4.17375
4.52586
1.82629
2.64111
4.16984
4.51925
1.82809
4.78314
4.78075
1.78452
2.4762
1.75286
2.52396
1.78385
2.47572
1.75334
1.61691
2.27644
1.6222
2.30897
1.61609
2.27595
1.62283
1.69491
2.40367
1.59887
2.28673
1.69483
2.40306
1.59977
2.10896
3.72692
2.04942
3.64044
2.11202
3.72398
2.04673
2.19338
3.76217
2.13196
3.73337
2.19247
3.75903
2.13171
3.90846
3.39618
3.91534
3.39232
1.41742
0.787872
1.04388
1.07257
1.41642
0.786265
1.04188
4.16705
4.5049
1.82918
2.64149
4.16493
4.49823
1.83084
4.77395
4.77145
1.69412
2.4007
1.59795
2.28324
1.69408
2.39985
1.59885
2.10767
3.7151
2.04927
3.63058
2.11092
3.71218
2.04638
2.19046
3.74981
2.13033
3.72271
2.1897
3.74682
2.12992
3.88042
3.37969
3.88746
3.37519
1.41568
0.784845
1.04024
1.07058
1.41516
0.783592
1.03894
4.15479
4.48378
1.83106
2.63753
4.15384
4.4772
1.83234
4.76444
4.76192
2.10572
3.7037
2.04836
3.62061
2.10912
3.70092
2.04529
2.18703
3.73817
2.1281
3.71262
2.18639
3.73541
2.12755
3.85297
3.3614
3.85971
3.35674
1.41469
0.7825
1.03789
1.06949
1.41428
0.78156
1.03711
4.13896
4.46301
1.83128
2.63031
4.13875
4.45662
1.83212
4.75495
4.75246
2.18324
3.72753
2.1254
3.70334
2.18268
3.72505
2.12474
3.82736
3.3429
3.83355
3.33835
1.41379
0.780766
1.03652
1.06894
1.41325
0.7801
1.03612
4.12098
4.44296
1.82974
2.62089
4.12121
4.4368
1.83014
4.74568
4.74328
3.80421
3.32513
3.80974
3.32086
1.41256
0.779541
1.03583
1.06862
1.41176
0.779078
1.03565
4.10191
4.4238
1.8266
2.61011
4.10236
4.41793
1.82662
4.73681
4.73452
3.7836
3.3086
3.78853
3.30469
1.41074
0.778698
1.03553
1.06826
1.4096
0.778343
1.03544
4.08245
4.40572
1.82209
2.59864
4.08302
4.40017
1.82179
4.72834
4.72623
3.76545
3.29351
3.76975
3.28995
1.40814
0.777947
1.03522
4.06321
4.38878
1.81648
2.58688
4.06374
4.38353
1.8159
4.72044
4.71843
2.77437
4.39435
4.68972
2.50135
4.69495
2.50564
2.77059
3.26399
6.00342
3.91084
6.00344
3.91075
3.2621
2.12056
3.6494
3.76074
2.04995
3.76028
2.05497
2.11547
2.11386
3.76476
3.77256
2.14129
3.7727
2.14372
2.10936
2.21048
3.77325
3.80847
2.14101
3.80891
2.14325
2.20917
2.30781
5.16659
3.97789
2.78741
3.98053
2.7885
2.30482
3.86456
3.3287
3.31699
3.88151
5.30592
5.33355
2.36282
1.49711
2.00817
1.72825
2.01635
1.73737
2.35482
2.87606
2.66915
4.60376
1.94044
4.5821
1.95206
2.87575
4.50797
4.3977
3.53247
4.00819
2.59672
4.56743
1.86953
4.56693
1.87949
4.03121
4.47005
3.56829
3.54172
4.46244
1.66548
2.3158
2.87118
4.64274
1.67582
2.30524
2.86723
1.65859
4.64792
2.29527
2.86295
2.30167
2.86511
1.65013
3.78215
3.86263
2.37654
3.78231
3.86376
6.01926
6.01836
4.81535
4.81781
2.37364
3.78297
3.86575
3.78282
3.86479
6.01552
6.01708
2.01891
3.25089
2.36175
4.01088
2.02169
3.24897
2.35873
2.01773
4.01025
3.24621
2.35587
3.24754
2.35798
2.01562
3.25971
6.00261
3.9111
3.26077
6.00099
3.91129
2.76362
4.3886
4.67194
2.49346
4.67608
2.49558
2.76196
3.25894
5.99575
3.91146
5.99868
3.91147
3.25824
2.58876
2.48503
1.77082
1.71055
2.59272
2.48095
1.76787
4.5447
4.35453
4.35643
4.54233
2.58523
1.70685
2.47449
1.76202
2.47736
1.76414
2.5823
3.72519
4.60211
4.60136
4.47277
4.65102
4.64894
4.35558
4.24822
4.24509
4.11358
4.18062
4.17807
3.97516
4.03605
3.9791
3.95312
3.94664
3.95564
4.03959
3.98518
3.98247
3.9475
3.95937
3.95776
4.06087
3.93728
4.06246
5.22529
5.22733
3.9394
4.06491
4.06381
5.22973
5.22883
1.68508
2.59001
2.59031
1.84113
2.59178
1.8434
1.68227
1.79111
2.52249
2.47488
1.76032
2.47557
1.76243
1.78941
1.69924
2.36914
2.41255
1.69048
2.41344
1.69203
1.6977
1.59138
2.26605
1.61851
2.27909
1.59312
2.26413
1.61684
1.62538
2.31261
2.27834
1.62916
2.27927
1.63061
1.62412
1.58845
2.27664
2.26133
1.6119
2.26247
1.61294
1.58726
1.83626
2.8757
1.98583
3.39394
1.83854
2.875
1.98229
1.70926
2.30036
2.41256
1.61511
2.41387
1.61649
1.70735
1.83423
3.39562
2.87414
1.9798
2.87446
1.98263
1.83255
2.10642
3.7725
2.13974
3.76313
2.11011
3.77215
2.13808
2.11388
3.657
3.7613
2.04468
3.76144
2.04809
2.1103
2.10784
3.76249
3.77122
2.13615
3.77183
2.13722
2.10476
2.29869
3.97552
2.78653
5.1755
2.30054
3.9731
2.78688
2.20227
3.77199
3.80545
2.13556
3.80656
2.13634
2.20251
2.29541
5.1763
3.96826
2.78812
3.97077
2.78706
2.29441
5.37445
5.35634
2.3437
2.00094
1.71953
1.47551
2.34842
1.99549
1.7121
2.87982
4.62326
1.92981
2.66821
2.87705
4.64025
1.92126
3.92452
3.37242
3.36256
3.93545
5.38793
5.39708
2.34021
1.46921
1.98743
1.69922
1.99073
1.70503
2.33795
2.88329
2.67052
4.66588
1.90754
4.6545
1.91347
2.88745
4.56441
4.57829
4.51363
3.57761
4.52853
3.60343
4.07929
2.59885
4.5713
1.83998
4.57304
1.84446
4.0983
4.57374
3.6349
3.61114
4.552
1.63814
2.29538
2.86222
4.66177
1.64493
2.29194
2.8612
1.63457
4.66577
2.29327
2.86114
2.29469
2.86142
1.62931
3.78335
3.8665
2.36872
3.7833
3.86707
6.01358
6.01135
4.80781
4.80967
2.36715
3.78317
3.86754
3.78347
3.86739
6.00598
6.0088
2.01317
3.24518
2.35576
4.00808
2.01489
3.24413
2.35417
2.01288
4.0069
3.2423
2.35333
3.24326
2.35454
2.01155
3.25706
5.9923
3.91131
3.25768
5.98837
3.91089
2.75895
4.38137
4.65572
2.49072
4.6597
2.49196
2.75806
3.25648
5.97947
3.9095
5.98409
3.91033
3.25579
2.57717
2.47169
1.75885
1.70005
2.57951
2.46945
1.75732
4.5344
4.34574
4.34816
4.5315
2.57496
1.6975
2.46573
1.75378
2.46737
1.75477
2.5731
4.60264
3.72522
4.60297
4.65254
4.48079
4.65354
3.72512
4.60301
4.60308
4.48191
4.6541
4.65404
4.25064
4.36451
4.25228
4.18248
4.11816
4.18363
4.36601
4.25348
4.25324
4.11834
4.18403
4.18415
3.98721
4.04615
3.98865
3.96049
3.94815
3.96113
4.04703
3.98967
3.98941
3.94775
3.96099
3.96126
4.06582
3.94355
4.06643
5.23014
5.23002
3.94432
4.06696
4.06685
5.22853
5.22948
1.67774
2.58927
1.83915
2.58808
1.68007
2.58843
1.83739
1.67604
2.58806
2.58762
1.83469
2.58797
1.83593
1.67419
1.6946
2.41185
1.68852
2.36746
1.69566
2.41149
1.68746
1.78486
2.5211
2.47458
1.75429
2.47434
1.75537
1.78416
1.69308
2.36731
2.41124
1.68545
2.41125
1.68603
1.6925
1.584
2.26031
1.60849
2.2718
1.58475
2.25964
1.60794
1.61923
2.31063
2.27698
1.62418
2.27703
1.62471
1.61889
1.58196
2.27051
2.25873
1.60496
2.25907
1.60505
1.58164
1.8298
2.87383
1.98072
3.39988
1.83102
2.87364
1.97834
1.70213
2.29538
2.40921
1.60787
2.40973
1.60821
1.70118
1.8287
3.40073
2.87325
1.97774
2.87341
1.97972
1.82787
2.10389
3.77054
2.13571
3.75991
2.1066
3.76946
2.13499
2.11195
3.66074
3.75808
2.04377
3.75921
2.04639
2.10905
2.10606
3.75872
3.76687
2.13448
3.76838
2.13491
2.10364
2.29124
3.96573
2.7887
5.1721
2.29172
3.96297
2.78991
2.19863
3.76806
3.799
2.13379
3.80099
2.13391
2.19958
2.289
5.16901
3.95709
2.79154
3.96014
2.79049
2.28888
5.40405
5.40243
2.33571
1.98445
1.69361
1.45502
2.33641
1.98264
1.68918
2.89584
4.67443
1.90204
2.68181
2.89158
4.68022
1.89816
3.95716
3.40096
3.39553
3.96093
5.4027
5.39863
2.33545
1.45093
1.98028
1.68173
1.98099
1.6849
2.33573
2.8997
2.68596
4.68421
1.89228
4.68345
1.89452
2.90333
4.60636
4.61138
4.57902
3.64016
4.60665
3.66121
4.1298
2.6128
4.56416
1.82751
4.56842
1.82843
4.14323
4.62904
3.68183
3.66367
4.59675
1.62304
2.29769
2.86183
4.67324
1.62707
2.29745
2.8619
1.622
4.67468
2.30324
2.86312
2.30284
2.86288
1.61904
3.78308
3.86745
2.36489
3.78251
3.86719
6.00293
5.99968
4.80098
4.80285
2.36386
3.78138
3.86608
3.78217
3.8667
5.99269
5.99626
2.0103
3.24146
2.35388
4.00263
2.01145
3.24046
2.3528
2.0104
4.00076
3.23848
2.35254
3.23955
2.3535
2.00947
3.25422
5.97465
3.90853
3.25509
5.96964
3.90729
2.75619
4.37093
4.63989
2.48953
4.64378
2.49059
2.75544
3.25333
5.95937
3.90441
5.96456
3.90596
3.25229
4.60274
3.72452
4.60229
4.65373
4.48133
4.65298
3.72422
4.60093
4.60168
4.48001
4.6505
4.65188
4.25312
4.36666
4.25213
4.18335
4.11536
4.18212
4.36574
4.24864
4.25065
4.11338
4.17829
4.18043
3.98922
4.04622
3.98841
3.96014
3.94449
3.95907
4.04496
3.98539
3.98703
3.94286
3.95571
3.95746
4.06685
3.94456
4.06644
5.2272
5.22552
3.94406
4.06495
4.06584
5.22127
5.22353
1.67142
2.58749
1.83367
2.5888
1.6729
2.58736
1.83282
1.67054
2.58925
2.58753
1.83176
2.58747
1.83221
1.66945
1.69109
2.41121
1.68435
2.36747
1.69132
2.41131
1.68411
1.78219
2.52258
2.47603
1.75166
2.47561
1.75199
1.78223
1.69029
2.36758
2.41154
1.68347
2.41139
1.68338
1.6904
1.57989
2.25842
1.60239
2.26803
1.5799
2.25817
1.60263
1.61628
2.31085
2.27741
1.6221
2.27729
1.622
1.61657
1.57849
2.26724
2.2578
1.60096
2.25799
1.60042
1.57877
1.82645
2.87295
1.97938
3.40246
1.82705
2.87268
1.97756
1.69823
2.29287
2.40764
1.60378
2.40789
1.60346
1.69786
1.82588
3.40239
2.87192
1.97779
2.8723
1.97942
1.8255
2.10365
3.76538
2.13456
3.75425
2.10595
3.7634
2.13426
2.11196
3.65981
3.75108
2.04467
3.75306
2.04702
2.10924
2.10606
3.75244
3.75922
2.13424
3.76154
2.13446
2.10383
2.28694
3.95395
2.79191
5.15525
2.28686
3.9506
2.79265
2.19688
3.7611
3.78941
2.13343
3.79208
2.13335
2.19805
2.28509
5.14959
3.9436
2.79295
3.94719
2.79263
2.28527
5.3841
5.39238
2.33682
1.97943
1.67853
1.44254
2.33612
1.97934
1.67637
2.90882
4.68294
1.88993
2.69809
2.90627
4.67972
1.88879
3.96342
3.41238
3.41097
3.96172
5.37423
5.36296
2.33751
1.44007
1.97937
1.6728
1.97905
1.67411
2.33833
2.91061
2.7014
4.66855
1.88709
4.67488
1.88742
2.91195
4.61617
4.61478
4.60731
3.68146
4.64309
3.69686
4.15799
2.62708
4.54894
1.82482
4.55474
1.82385
4.16652
4.65068
3.70688
3.69389
4.61229
1.61669
2.30899
2.86412
4.67477
1.61888
2.3095
2.86431
1.61729
4.67396
2.31568
2.86538
2.3153
2.86527
1.61572
3.7808
3.86527
2.36259
3.77976
3.86435
5.98905
5.98529
4.79354
4.79563
2.36174
3.77777
3.86213
3.77899
3.86327
5.97768
5.98153
2.00868
3.23749
2.3532
3.99471
2.0096
3.2363
2.35219
2.00893
3.9924
3.23393
2.35187
3.2352
2.35288
2.00812
3.24999
5.95421
3.90278
3.25122
5.94905
3.90096
2.75352
4.35852
4.62475
2.48828
4.62843
2.48943
2.75265
3.24874
5.93894
3.89712
5.94396
3.89911
3.24737
4.60003
3.7231
4.59902
4.64882
4.47348
4.64693
3.72266
4.59668
4.59789
4.47062
4.64257
4.64482
4.24625
4.36022
4.24343
4.17578
4.10514
4.1729
4.35764
4.23692
4.24034
4.10181
4.16633
4.16976
3.98318
4.03881
3.9808
3.95342
3.93632
3.95106
4.03612
3.97516
3.97802
3.93377
3.94554
3.9483
4.06388
3.94078
4.06256
5.21875
5.216
3.93924
4.05942
4.0611
5.20996
5.21306
1.66803
2.58769
1.83145
2.59048
1.66885
2.58776
1.83128
1.66774
2.59086
2.58805
1.83134
2.58797
1.83126
1.6672
1.69013
2.41155
1.68292
2.36778
1.6898
2.41159
1.6832
1.78197
2.52424
2.47705
1.7514
2.47688
1.75122
1.78246
1.68978
2.36774
2.41147
1.68335
2.41154
1.68289
1.69031
1.57804
2.25761
1.59895
2.26552
1.57757
2.2574
1.5997
1.61545
2.31108
2.27766
1.62182
2.2777
1.62136
1.6161
1.57703
2.2648
2.25687
1.59883
2.25717
1.59791
1.57765
1.82476
2.87136
1.97971
3.40135
1.82505
2.87081
1.97806
1.69623
2.29098
2.40628
1.60156
2.40659
1.60086
1.69619
1.82444
3.40042
2.8694
1.97846
2.87011
1.98005
1.82426
2.10393
3.75705
2.13444
3.74629
2.10621
3.75439
2.1342
2.11232
3.65493
3.74129
2.04589
3.74384
2.04826
2.10955
2.10631
3.74401
3.74914
2.13416
3.75199
2.13441
2.10401
2.2836
3.93997
2.79249
5.12996
2.28342
3.93621
2.79235
2.19545
3.75189
3.77779
2.13315
3.78085
2.13313
2.19659
2.28176
5.12294
3.92859
2.79085
3.93244
2.79144
2.28192
5.33743
5.35065
2.3396
1.97928
1.67125
1.4357
2.33896
1.97971
1.67058
2.91258
4.66102
1.88626
2.7092
2.91249
4.6524
1.88636
3.95113
3.41045
3.41194
3.94616
5.32359
5.30922
2.34002
1.43432
1.98022
1.66944
1.97976
1.66961
2.34035
2.91195
2.71075
4.63265
1.88632
4.6429
1.88593
2.91092
4.60433
4.59894
4.61337
3.70167
4.65354
3.71259
4.16893
2.63694
4.52959
1.82664
4.53603
1.8249
4.17413
4.65306
3.71476
3.70553
4.61168
1.61565
2.3212
2.86618
4.66819
1.61682
2.32122
2.8661
1.61717
4.66571
2.32599
2.86648
2.32637
2.86673
1.61631
3.77681
3.86087
2.36072
3.77543
3.85957
5.9739
5.97008
4.7852
4.7875
2.3599
3.77282
3.85676
3.77433
3.85816
5.96258
5.96633
2.00745
3.23274
2.35244
3.98543
2.00832
3.23137
2.35131
2.00772
3.98296
3.22869
2.35071
3.23011
2.35186
2.0069
3.24449
5.93406
3.89512
3.24599
5.92931
3.89299
2.75014
4.34558
4.61099
2.4864
4.61422
2.48773
2.74908
3.243
5.92024
3.88872
5.92469
3.89089
3.24143
4.59538
3.72119
4.59402
4.64014
4.46063
4.63761
3.72067
4.59111
4.59258
4.45696
4.63227
4.63497
4.23333
4.3482
4.22952
4.16272
4.09058
4.15894
4.34463
4.22155
4.22561
4.08656
4.15104
4.15504
3.97191
4.02669
3.96864
3.94238
3.92505
3.93927
4.02322
3.96164
3.96512
3.92196
3.9326
3.93588
4.05763
3.93332
4.05566
5.20671
5.20335
3.93107
4.05143
4.05362
5.19636
5.19989
1.66673
2.58817
1.83151
2.59143
1.6671
2.58815
1.83175
1.66685
2.59148
2.58813
1.83249
2.58821
1.83209
1.66668
1.69066
2.41122
1.68311
2.36716
1.69005
2.41093
1.68366
1.78311
2.52471
2.4766
1.75253
2.47685
1.75208
1.78377
1.69052
2.36678
2.41007
1.68416
2.41052
1.68354
1.69121
1.57745
2.25651
1.59713
2.26297
1.57675
2.25611
1.59815
1.61575
2.31034
2.27684
1.62243
2.27719
1.62181
1.61657
1.57664
2.26214
2.25511
1.59768
2.25565
1.59658
1.57742
1.82379
2.86852
1.98039
3.39711
1.82396
2.86763
1.9787
1.6952
2.28875
2.40435
1.60028
2.40484
1.5994
1.69528
1.82354
3.39555
2.8656
1.97894
2.86661
1.98063
1.82341
2.10386
3.74656
2.13428
3.7368
2.10628
3.74352
2.13393
2.11229
3.64724
3.72992
2.04666
3.73277
2.04919
2.10936
2.10608
3.73425
3.73774
2.13363
3.74083
2.13402
2.1036
2.28006
3.92475
2.78953
5.10076
2.27997
3.92087
2.78854
2.19363
3.74147
3.7653
2.13237
3.76847
2.13251
2.19463
2.27807
5.09329
3.91316
2.7855
3.91701
2.78683
2.2781
5.2796
5.29454
2.34025
1.98016
1.66885
1.43254
2.34036
1.98048
1.66896
2.90718
4.62186
1.88597
2.71305
2.90921
4.61054
1.88637
3.92855
3.39975
3.40303
3.92204
5.26458
5.24949
2.33986
1.4318
1.98052
1.66891
1.98033
1.66861
2.33935
2.90458
2.71281
4.58701
1.88644
4.59892
1.88606
2.90174
4.5793
4.57164
4.60806
3.70619
4.65024
3.71404
4.16835
2.64125
4.50884
1.8296
4.51543
1.82779
4.17127
4.64571
3.71107
3.7043
4.60302
1.6173
2.33062
2.86689
4.6559
1.61802
2.32973
2.86642
1.61919
4.65239
2.33257
2.866
2.3339
2.86664
1.61857
3.77159
3.85527
2.35882
3.76996
3.8538
5.95893
5.95532
4.77614
4.7786
2.35796
3.76695
3.85074
3.76866
3.85225
5.94837
5.95182
2.00617
3.22738
2.35113
3.97583
2.00708
3.22591
2.34985
2.0064
3.97341
3.22309
2.34894
3.22457
2.35025
2.00553
4.58959
4.6295
4.21744
4.33309
4.21324
4.14697
4.07406
4.14282
3.9579
4.01217
3.95424
3.92902
3.91214
3.92557
4.00837
3.94678
3.95045
3.90883
3.91849
3.92194
4.04919
3.9235
4.04684
5.19277
5.18912
3.92084
4.04202
4.04447
5.18177
5.18545
2.58805
1.83291
1.6669
1.69173
2.40944
1.68402
2.36517
1.69105
2.40879
1.68464
1.57742
2.2545
1.59611
2.25983
1.57663
2.25384
1.59724
1.61646
2.30833
2.27476
1.62329
2.27541
1.62265
1.61729
1.57666
2.25881
2.25234
1.59688
2.25312
1.59573
1.57746
1.82295
2.86442
1.98076
3.3907
1.82312
2.86325
1.97893
1.69447
2.28581
2.40161
1.59935
2.4023
1.59842
1.69456
1.82268
3.38876
2.86073
1.97886
2.86198
1.98071
1.8225
2.10308
3.735
2.13359
3.72651
2.10569
3.73184
2.13306
2.11156
3.63794
3.71806
2.0467
3.72097
2.04942
2.10843
2.10511
3.72389
3.72598
2.1324
3.72909
2.13298
2.10244
2.27592
3.90934
2.78347
5.0709
2.27599
3.90555
2.78184
2.19118
3.73068
3.75284
2.13091
3.75593
2.13122
2.19202
2.27378
5.0636
3.89811
2.77771
3.90181
2.77956
2.27365
5.21957
5.23448
2.33757
1.98015
1.66866
1.43138
2.33851
1.98011
1.66901
2.89489
4.57499
1.88597
2.71023
2.8984
4.56284
1.88614
3.90151
3.38405
3.38829
3.89448
5.20484
5.19036
2.33637
1.43093
1.97939
1.66917
1.97959
1.66881
2.33508
2.89099
2.70855
4.53858
1.88557
4.5507
1.88554
2.88701
4.54714
4.53835
4.59695
3.70041
4.64002
3.70632
4.16
2.64044
4.48774
1.83182
4.49432
1.8303
4.16151
4.63339
3.70026
3.69499
4.59008
1.61983
2.3362
2.866
4.64021
1.62046
2.33438
2.86515
1.62175
4.63613
2.33538
2.86399
2.33758
2.865
1.6211
3.76556
2.35673
3.76378
4.76669
4.76921
2.35581
3.76053
3.76234
4.03956
3.91244
4.03704
5.17809
5.17444
1.82193
2.85933
1.98053
3.38303
1.82217
2.85797
1.97853
1.82158
3.3809
2.85512
1.97813
2.85652
1.98015
1.82132
2.10156
3.72327
2.13221
3.71613
2.10434
3.72017
2.13149
2.11009
3.62799
3.70648
2.04597
3.7093
2.04889
2.10679
2.10341
3.71358
3.71454
2.13052
3.71753
2.13125
2.10057
2.27118
3.89449
2.77522
5.04232
2.27139
3.89092
2.77318
2.18812
3.72013
3.74099
2.12882
3.74388
2.12928
2.18883
2.26891
5.03555
3.884
2.7684
3.88742
2.77055
2.26866
5.16216
5.17611
2.33187
1.97862
1.66891
1.43101
2.33351
1.97818
1.66919
2.87832
4.52659
1.8847
2.70229
2.88267
4.5147
1.88445
3.87345
3.36603
3.37065
3.86653
5.14849
5.13519
2.33004
1.43064
1.9767
1.66907
1.97728
1.66887
2.32816
2.8737
2.6996
4.49146
1.88297
4.50298
1.8834
2.86913
4.51175
4.50262
4.58267
3.6884
4.62611
3.69318
4.14669
2.63555
4.46688
1.83249
4.47332
1.8314
4.14727
4.61836
3.6854
3.68096
4.57487
1.62218
2.33813
2.86366
4.62289
1.62293
2.33554
2.86248
1.62397
4.61864
2.33505
2.86074
2.33794
2.86203
1.62315
3.75904
2.35441
3.75718
4.75716
4.75968
2.35343
3.75381
3.75568
2.09939
3.71199
2.13018
3.70618
2.10232
3.70906
2.12932
2.10111
3.70379
3.70384
2.1281
3.70661
2.12896
2.09815
2.26598
3.88065
2.76566
5.01608
2.2663
3.87738
2.76342
2.18459
3.71022
3.73009
2.12622
3.7327
2.12679
2.18521
2.26364
5.00999
3.8711
2.75836
3.8742
2.76063
2.26332
5.1096
5.1222
2.32393
1.97557
1.66862
1.43072
2.32605
1.97479
1.66868
2.85959
4.48018
1.88165
2.69091
2.86431
4.46914
1.88094
3.84637
3.34748
3.35211
3.83988
5.09735
5.08552
2.32167
1.43029
1.97267
1.66807
1.97356
1.66813
2.31942
2.8547
2.68759
4.44787
1.87859
4.45834
1.87946
2.84995
4.4758
4.46686
4.56687
3.67291
4.61034
3.6771
4.13021
2.62769
4.44666
1.83138
4.45288
1.83073
4.13024
4.60214
3.6685
3.66446
4.55875
1.62386
2.33711
2.86014
4.60523
1.6248
2.33394
2.85873
1.62543
4.60105
2.33235
2.85656
2.33573
2.85805
1.62439
3.75228
2.35187
3.75039
4.74782
4.75027
2.35086
3.74698
3.74886
2.26052
3.86809
2.75553
4.99267
2.26089
3.86516
2.75323
2.18075
3.70117
3.72028
2.12325
3.72262
2.12391
2.1813
2.25814
4.98732
3.85956
2.74816
3.86231
2.75043
2.25775
5.06297
5.07404
2.31457
1.97126
1.66736
1.4301
2.31697
1.97022
1.66714
2.84028
4.43767
1.87686
2.6775
2.84503
4.42776
1.87574
3.82132
3.32946
3.33388
3.81547
5.05227
5.04198
2.31205
1.42956
1.96764
1.66599
1.96875
1.66633
2.3096
2.83543
2.67386
4.40881
1.87267
4.41811
1.87389
2.83077
4.44109
4.43265
4.55062
3.65576
4.5939
3.6597
4.11191
2.61786
4.4273
1.82861
4.43325
1.82836
4.11163
4.58567
3.65086
3.64694
4.54255
1.62466
2.3339
2.85578
4.58803
1.62582
2.33032
2.8542
1.626
4.58405
2.32798
2.85174
2.33169
2.85336
1.62474
3.74545
2.34916
3.74356
4.73884
4.74119
2.34811
3.74017
3.74203
2.25486
3.8569
2.74538
4.97227
2.2553
3.85434
2.74312
5.0225
5.03203
2.30445
1.96605
1.66502
1.42896
2.30698
1.96482
1.66452
2.82144
4.39978
1.87062
2.66314
2.826
4.39105
1.86919
3.79882
3.3126
3.31669
3.7936
5.0133
5.00449
2.30182
1.4283
1.96194
1.66288
1.9632
1.66346
2.29929
2.8168
2.65941
4.37447
1.8656
4.38259
1.86708
2.81241
4.40863
4.40085
4.53457
3.63808
4.57756
3.642
4.09274
2.60686
4.40897
1.82441
4.41461
1.82451
4.09236
4.56957
3.63326
3.62929
4.52678
1.62457
2.32917
2.85082
4.57173
1.62595
2.32533
2.84914
1.62571
4.56802
2.32248
2.84649
2.32641
2.8482
1.62424
3.73865
3.8266
2.34629
3.73679
3.82537
5.90308
4.73031
4.73254
2.3452
3.73345
3.82303
3.73529
3.82417
5.89978
5.90138
4.98783
4.99596
2.29402