/*--------------------------------*- C++ -*----------------------------------*\
  =========                 |
  \\      /  F ield         | OpenFOAM: The Open Source CFD Toolbox
   \\    /   O peration     | Website:  https://openfoam.org
    \\  /    A nd           | Version:  10
     \\/     M anipulation  |
\*---------------------------------------------------------------------------*/
FoamFile
{
    format      ascii;
    class       volScalarField;
    location    "2000";
    object      p;
}
// * * * * * * * * * * * * * * * * * * * * * * * * * * * * * * * * * * * * * //

dimensions      [0 2 -2 0 0 0 0];

internalField   nonuniform List<scalar> 
8808
(
0.0345335
0.0342225
0.0415081
0.0526267
0.0367096
0.0332545
0.0360443
0.030276
0.0123938
-0.0602864
0.0393084
0.0339792
0.028934
0.0131017
-0.00978736
-0.0437468
-0.0691116
-0.0227826
-0.0380461
0.040124
0.0351704
0.0235632
0.0288418
0.0605105
0.049397
0.0437597
0.039307
0.0354194
0.0377025
0.0513349
0.0694876
0.0567297
0.04916
0.0454009
0.0418618
0.0399698
0.0410811
0.0508106
0.0649118
0.055674
0.05119
0.0465019
0.0426316
0.0397857
0.0378849
0.0418721
0.0415312
0.0243547
-0.0500324
0.0550059
0.0513183
0.0471853
0.0436495
0.0403753
0.0363716
0.0325532
0.0196717
-0.00157576
-0.0352929
-0.0614704
-0.0169501
-0.0320273
0.077693
0.0539689
0.0470126
0.0429445
0.0327988
0.0381333
0.0656074
0.0553918
0.0504514
0.0460601
0.0430382
0.0464033
0.0591796
0.0783028
0.0617078
0.0549378
0.0518586
0.0488997
0.0475773
0.0491802
0.058392
0.0728652
0.0599576
0.0560753
0.0520792
0.0489838
0.0467117
0.0455088
0.0490458
0.05041
0.0330521
-0.0418787
0.0583923
0.0552724
0.051838
0.048943
0.0462352
0.0429493
0.0394681
0.0273
0.0061652
-0.0278691
-0.00990432
-0.0251369
0.0829857
0.0593609
0.053151
0.0502634
0.0404438
0.0463622
0.0707849
0.0610342
0.0565368
0.0525619
0.0497744
0.0532579
0.0664589
0.0860494
0.0666473
0.0602803
0.0573695
0.0547884
0.0538045
0.056003
0.0653514
0.079964
0.064553
0.0610047
0.0573046
0.0546201
0.0526942
0.052203
0.0556843
0.0581005
0.0404581
-0.0349448
0.0626654
0.059906
0.0568417
0.0543051
0.0519358
0.0493068
0.046068
0.0341692
0.0128409
-0.0216923
-0.00413822
-0.019737
0.0877726
0.0642302
0.0585213
0.0561666
0.0467276
0.0529688
0.0753746
0.0659958
0.0618259
0.0579492
0.0555807
0.0592028
0.0723269
0.0921202
0.0707996
0.0647065
0.0619985
0.0596971
0.0588436
0.0613973
0.07075
0.0862931
0.0684404
0.0650521
0.0615474
0.0591953
0.0575245
0.0573105
0.0604182
0.0640257
0.0463185
-0.0293985
0.066347
0.0637728
0.0608747
0.058598
0.0564531
0.0540948
0.0508523
0.0391943
0.0180479
-0.0167781
0.000252239
-0.0155674
0.0919713
0.0684589
0.0629602
0.0612161
0.0520961
0.0586066
0.0794487
0.0701438
0.0662211
0.0627126
0.0606788
0.0644282
0.0776585
0.0982312
0.0745495
0.0686462
0.0661814
0.0641073
0.0635189
0.0663732
0.0759408
0.0922769
0.0719459
0.0687104
0.0654547
0.0633485
0.0619074
0.0620216
0.0652674
0.0695309
0.0513999
0.0696572
0.0672257
0.0645057
0.0624353
0.060484
0.0584358
0.0553492
0.0439661
0.0225292
0.00409198
0.095665
0.0721301
0.0669548
0.0655206
0.0566594
0.0633243
0.0738477
0.0701889
0.0667714
0.0648945
0.0688701
0.0822366
0.103487
0.0698676
0.0679628
0.0674514
0.0706321
0.0803853
0.0973203
0.0689729
0.0671318
0.0657127
0.0661128
0.0693003
0.0745667
0.0691973
0.0605154
0.0672751
0.0703141
0.0685398
0.0726074
0.0857059
0.107602
0.0715015
0.071014
0.0743757
0.0840414
0.100809
0.0705524
0.0691957
0.069802
0.0730399
0.0782869
0.0637631
0.070548
0.0715848
0.0756851
0.0887976
0.110953
0.0737217
0.0772347
0.0871588
0.104115
0.0716921
0.0723884
0.0757424
0.0817558
0.0732845
0.0783045
0.0911906
0.113792
0.08025
0.089866
0.106625
0.0788164
0.0842768
0.0929022
0.11575
0.0915141
0.108536
0.0806728
0.0863748
0.0666988
0.0945427
0.116525
0.0970257
0.109662
0.0869542
0.0891637
0.0686446
0.0845695
0.109192
0.0984879
0.0791775
0.0646203
-0.059675
-0.0496319
-0.0609935
0.0278844
0.0287609
0.0297838
0.031804
0.0255921
0.0317686
0.0317073
0.0384869
0.0468084
0.0643486
0.0621259
0.0624509
0.0615826
0.0246807
0.0313649
0.0295609
0.0622672
0.0421575
0.0451604
0.0383117
0.00465233
0.0102446
-0.0773231
-0.0133353
-0.0576802
0.0179249
-0.0640391
-0.00827591
-0.0530255
-0.0436227
-0.0502716
-0.048185
-0.039576
-0.0517454
-0.0675811
-0.0679435
0.0809119
0.0525102
0.0491201
0.0387726
0.0359009
0.0341706
0.0404613
0.0382206
0.0317361
0.0358639
0.0775942
0.0560804
0.0646176
0.0575616
0.0517621
0.0431154
0.051507
0.0474295
0.0382538
0.0431922
0.0418046
0.043402
0.0393311
0.045973
0.0448025
0.0299341
0.0378541
0.0353146
0.0366277
0.0420633
0.0413804
0.0394815
0.0300798
0.0341433
0.0364316
0.0371293
0.0377689
0.0384615
0.0408484
0.0359651
0.0371049
0.0438193
0.0354688
0.0409944
0.0410655
0.047133
0.0534061
0.0682446
0.0554084
0.0744772
0.0666235
0.0714618
0.0664264
0.0714737
0.071641
0.0374866
0.0441129
0.0411379
0.071446
0.0511527
0.0549964
0.0470316
0.0172391
0.0196396
-0.0663587
-0.00353666
-0.0483227
0.026986
-0.0552013
0.000625623
-0.0443174
-0.0347873
-0.0417477
-0.0396221
-0.0316743
-0.0439509
-0.0593377
-0.0601749
0.0816228
0.0539917
0.0862962
0.0579782
0.0510265
0.0413648
0.0547029
0.0452553
0.0431348
0.0422742
0.0470105
0.0457932
0.0397814
0.0434506
0.0575788
0.0675161
0.0607961
0.082988
0.0615192
0.0700409
0.0631267
0.0466558
0.0552366
0.0514843
0.0573565
0.049356
0.0576733
0.0537504
0.0458422
0.050199
0.0488707
0.0497479
0.0467247
0.0526456
0.0513199
0.0386574
0.0453218
0.0432849
0.0440942
0.0500102
0.0480112
0.0470243
0.0388119
0.0424683
0.0450759
0.0452564
0.0458322
0.0461274
0.0487266
0.0446045
0.0454795
0.051766
0.044086
0.0498003
0.0491453
0.0555456
0.0615022
0.0778441
0.0624983
0.0829527
0.0753856
0.0800182
0.0757187
0.0796899
0.0807901
0.046388
0.0532347
0.0492515
0.0786199
0.0597165
0.0633171
0.0547167
0.0262115
0.0275682
-0.0579079
0.00458595
-0.0403916
0.0346695
-0.0478383
0.00820587
-0.0373795
-0.0274933
-0.0340087
-0.0321259
-0.0248098
-0.037055
0.0869088
0.0593183
0.0912153
0.0629715
0.0563978
0.0476432
0.0597668
0.0508934
0.0494965
0.049873
0.0527677
0.0523213
0.0474571
0.0499612
0.0628948
0.0727826
0.0661248
0.0879265
0.0664269
0.0750519
0.0681776
0.0526645
0.0610871
0.0574803
0.0624088
0.0547344
0.0631367
0.0592994
0.0533767
0.0565183
0.055536
0.0552098
0.0529915
0.0580769
0.057227
0.046214
0.0521498
0.05043
0.0503538
0.0563852
0.0543794
0.053314
0.046465
0.0492365
0.052016
0.0518934
0.052285
0.0522182
0.0549988
0.0535241
0.0526692
0.0593033
0.0510027
0.0568488
0.0556979
0.0620631
0.0684317
0.0857794
0.0687974
0.0892682
0.0836421
0.0868894
0.0835537
0.0858396
0.0871665
0.0543717
0.0613328
0.0565262
0.08527
0.0666175
0.0704105
0.06091
0.0337725
0.0339034
-0.0510834
0.0114223
-0.0340351
0.0408386
-0.0418377
0.0141807
-0.0316368
-0.021375
-0.0277348
-0.0263307
-0.0195183
-0.0319878
0.0916789
0.0641304
0.0955321
0.0672866
0.0612829
0.0532306
0.064157
0.055721
0.0551375
0.056036
0.057756
0.0577701
0.0535123
0.0554737
0.0675887
0.0774698
0.0708118
0.0922598
0.0705951
0.0794637
0.072577
0.0579159
0.0662568
0.0628751
0.0667298
0.0591173
0.0675872
0.0638983
0.0592346
0.061962
0.060831
0.0599497
0.0581469
0.0632931
0.0625159
0.0523815
0.0576104
0.0560657
0.0556511
0.0619416
0.0598173
0.0585601
0.0526197
0.0549505
0.0578284
0.0575856
0.0580605
0.0575302
0.0604851
0.0601396
0.0586056
0.0651926
0.0568276
0.0629605
0.0611989
0.0677322
0.0744201
0.0916537
0.0749024
0.0950807
0.0903168
0.09364
0.0900037
0.0921043
0.0935605
0.061048
0.0674357
0.0620966
0.0912225
0.072792
0.076003
0.0662913
0.0397777
0.0391702
-0.0454609
0.0167731
-0.0288651
0.0460782
-0.0371784
0.0190704
-0.0270583
-0.016605
-0.0231961
-0.0218012
-0.0152622
-0.0282181
0.0958579
0.0683779
0.0993561
0.0712389
0.0656229
0.0578055
0.0681544
0.0599867
0.0598979
0.0611908
0.0621781
0.0623484
0.0588048
0.0601443
0.0716904
0.0815938
0.0749085
0.096104
0.0743502
0.0833782
0.0765704
0.0620741
0.0704237
0.0669214
0.0705848
0.0630695
0.0717587
0.0681446
0.0640444
0.0662426
0.0653371
0.0641238
0.0624615
0.0676518
0.066934
0.0575962
0.0624576
0.0609973
0.0601074
0.0666599
0.0642363
0.0631121
0.0580646
0.0599182
0.0630044
0.0623721
0.0628271
0.0620593
0.0651804
0.0659532
0.0637683
0.0703239
0.061733
0.0681824
0.065961
0.0725837
0.0802896
0.0974566
0.0798826
0.100126
0.0970825
0.0998147
0.0961782
0.0978366
0.0995697
0.0671845
0.0731604
0.067274
0.0970599
0.0783692
0.0816396
0.0711956
0.0449694
0.043718
-0.0410656
0.021319
-0.0247287
0.0505892
-0.0333606
0.0232729
-0.0232407
0.0995364
0.072123
0.0694396
0.0618821
0.0641494
0.065595
0.0659448
0.0661783
0.0633278
0.0641324
0.0752365
0.0658386
0.0741246
0.0707603
0.0681796
0.0702244
0.0693729
0.0676496
0.0660418
0.0713071
0.0705429
0.0620802
0.0665544
0.0651618
0.0638917
0.0707037
0.0679948
0.0669689
0.0626482
0.0640724
0.0673322
0.0664641
0.0668572
0.0659293
0.0691879
0.071049
0.068152
0.074824
0.065864
0.0724403
0.0699834
0.076663
0.0850434
0.102253
0.0837614
0.103961
0.102914
0.104447
0.101262
0.102019
0.1039
0.0722884
0.0782808
0.0716175
0.101377
0.0826678
0.0860745
0.0749502
0.0493724
0.047422
0.0672077
0.0659018
0.0700294
0.068796
0.0740906
0.0703682
0.0665134
0.0676454
0.0709825
0.069866
0.0701979
0.0692275
0.0725078
0.0752147
0.0718047
0.0785015
0.0692835
0.0760529
0.0733162
0.0800293
0.0887051
0.105981
0.0870456
0.107145
0.107556
0.108436
0.10491
0.105521
0.107288
0.076332
0.0820636
0.0749279
0.104769
0.086264
0.0897368
0.0780003
0.0528958
0.0504978
0.0697325
0.0706341
0.0740164
0.0730489
0.0752952
0.0785909
0.0748206
0.0815094
0.0721364
0.0789504
0.0760683
0.0827435
0.0918514
0.108981
0.0897109
0.109845
0.111372
0.111795
0.108135
0.108413
0.110293
0.0798011
0.0855802
0.07785
0.107963
0.0893219
0.0930652
0.0805903
0.0558681
0.0531086
0.0813498
0.0773635
0.0839591
0.0744457
0.0812976
0.0783262
0.0849389
0.0943693
0.111678
0.0917963
0.112071
0.114603
0.11445
0.11056
0.110783
0.112472
0.0826344
0.0880573
0.0800745
0.110278
0.0918102
0.0954812
0.0826995
0.0583232
0.055293
0.0834827
0.0857521
0.0962299
0.113509
0.0933706
0.11339
0.116892
0.116064
0.112271
0.112144
0.11398
0.0848987
0.0900364
0.0818201
0.112142
0.0936337
0.0978542
0.0842936
0.0603199
0.0571445
0.0349391
0.0641667
0.0359315
0.0976911
0.114415
0.089326
0.109395
0.117902
0.11183
0.11267
0.107534
0.110729
0.0862397
0.0920084
0.0828112
0.110133
0.0913045
0.0966409
0.0832506
0.0620445
0.0559164
0.0373359
0.0629363
0.036376
0.0902292
0.107499
0.111059
0.101988
0.0818279
0.0814756
0.0753875
0.058634
0.032873
0.0457128
0.0636407
0.0373852
0.0655813
0.0384059
0.0425909
-0.055748
-0.0614031
-0.0541046
-0.0531113
-0.0592534
-0.0576283
-0.0436913
-0.0945081
-0.0947166
-0.0963828
-0.0932829
-0.0670188
0.0420862
0.0419533
0.042404
0.0401593
0.0446653
0.0413237
0.0414264
0.0359774
0.0353157
0.0385131
0.032915
0.0375315
0.0353064
0.033303
0.0406374
0.0267532
0.0240444
0.0326822
0.0280919
0.0352958
0.0376738
0.0351744
0.0337011
0.0307243
0.0310084
0.0399023
0.0322925
0.0327484
0.0340673
0.0550777
0.0328997
0.0560999
0.0693349
0.0428481
0.071247
0.055422
0.073842
0.0468031
0.0755143
0.0741259
0.0947794
0.0599825
0.0671353
0.0892233
0.0916225
0.055166
0.0521618
0.054547
-0.0469519
-0.0514367
-0.044589
-0.0436072
-0.0498756
-0.0482867
-0.0348556
-0.0858409
-0.085027
-0.0868973
-0.0842434
-0.0592551
0.0518716
0.0523434
0.0565311
0.0548356
0.0533232
0.0522368
0.0571773
0.0492492
0.0496511
0.0492563
0.0470072
0.0519741
0.0488984
0.0481786
0.0438388
0.0435885
0.0460445
0.0407163
0.0455686
0.0433899
0.0407799
0.0490075
0.0357042
0.0329916
0.0415395
0.036857
0.0437988
0.0463345
0.0432064
0.0422466
0.0396772
0.0399957
0.0480536
0.0406716
0.041476
0.0424842
0.0633328
0.0417158
0.0641049
0.0778369
0.0509975
0.0791155
0.0625698
0.081631
0.0547105
0.0825061
0.0816183
0.104851
0.0699034
0.0757656
0.0980336
0.100709
0.0649715
0.0616105
0.0635913
-0.0395245
-0.0431607
-0.0369915
-0.0354232
-0.0421815
-0.0401902
-0.0275137
0.0576301
0.0580337
0.062174
0.0602301
0.0592594
0.0577913
0.0628383
0.0554254
0.0562355
0.0552986
0.0529565
0.0583985
0.0552152
0.0540206
0.0509178
0.0511532
0.0530741
0.0478418
0.0528151
0.0507626
0.0476834
0.0557364
0.0431403
0.0403315
0.0487697
0.0440004
0.0509021
0.0532406
0.0505981
0.0502265
0.0477742
0.0477842
0.0558704
0.0482573
0.0491179
0.049365
0.0710561
0.0489555
0.0715805
0.0852904
0.0586958
0.0860386
0.0691891
0.0885401
0.0615085
0.0894254
0.0877912
0.113086
0.0785937
0.0826919
0.105467
0.108102
0.0724855
0.0696456
0.0712449
-0.0336054
-0.0363061
-0.0306626
-0.0287922
-0.035867
-0.0337366
-0.0215439
0.062529
0.0629598
0.0672408
0.0648922
0.0643504
0.0625511
0.0676559
0.0606945
0.061744
0.0605346
0.0582049
0.0637834
0.0605464
0.0591676
0.0563534
0.057251
0.058649
0.0533863
0.0585624
0.0564403
0.053008
0.0614076
0.0492412
0.0463149
0.0549201
0.0498291
0.0569933
0.0589657
0.0564413
0.0568563
0.054143
0.0540584
0.0620387
0.0542729
0.0551945
0.0550389
0.07755
0.0546749
0.0780176
0.0913181
0.0645942
0.0924819
0.075014
0.0942084
0.0667641
0.0955622
0.0931682
0.120196
0.0850506
0.0890678
0.111982
0.1145
0.0790108
0.0760759
0.0774774
-0.0292082
-0.0308104
-0.0257279
-0.0236853
-0.0311385
-0.0286114
-0.0169154
0.0663958
0.0671399
0.0714735
0.0690187
0.0684207
0.0665727
0.0717877
0.0648745
0.0662328
0.0647438
0.0624671
0.0681362
0.0648244
0.063236
0.0610325
0.0623492
0.0634653
0.0581804
0.0634829
0.0612694
0.0576095
0.066244
0.0545756
0.0514122
0.0601734
0.0548656
0.0621657
0.0639001
0.0614561
0.0623608
0.0595139
0.0594251
0.0672461
0.0596301
0.0603091
0.0607312
0.0837047
0.0606033
0.0839831
0.0970093
0.0693982
0.0985042
0.0799439
0.0995197
0.0715388
0.101407
0.098715
0.126516
0.0912311
0.0949561
0.117773
0.12072
0.0849765
0.0817518
0.0830106
0.0697335
0.0707391
0.0751467
0.072559
0.0718539
0.0700183
0.0753098
0.0685895
0.0701812
0.0685845
0.0662647
0.0720336
0.0685857
0.0668842
0.0649779
0.0665947
0.0675699
0.0622811
0.0675885
0.0653427
0.0615445
0.070276
0.0590615
0.0556683
0.0645832
0.0590361
0.0664668
0.0680088
0.0656939
0.0670638
0.0639868
0.06394
0.0716819
0.064111
0.0645952
0.0652206
0.0890195
0.0654336
0.0889011
0.101814
0.0738705
0.10391
0.0839394
0.103572
0.0755501
0.105972
0.103591
0.13292
0.09636
0.0999427
0.123493
0.126082
0.0897787
0.0865767
0.0876108
0.0683473
0.0701614
0.0710695
0.0657987
0.0710625
0.0687602
0.0649235
0.0737038
0.0628872
0.0592844
0.0682942
0.0625997
0.0701284
0.0714965
0.0692215
0.0710058
0.0677224
0.0676951
0.0753904
0.0678542
0.0681491
0.0688025
0.0932277
0.0692188
0.0928921
0.105402
0.0773625
0.107789
0.0873138
0.106789
0.078949
0.109522
0.107635
0.137446
0.100028
0.103648
0.127666
0.130463
0.0932802
0.0904384
0.0913119
0.0766081
0.0661181
0.062292
0.0714322
0.0655945
0.0732321
0.0744393
0.0721368
0.0742628
0.0708143
0.0708163
0.0784542
0.0709487
0.0711035
0.071747
0.0967639
0.0723
0.0962574
0.108386
0.0805672
0.111291
0.0901016
0.109571
0.0818674
0.11274
0.111431
0.141453
0.103023
0.106839
0.131431
0.134416
0.0961889
0.0937533
0.0945158
0.0745872
0.0769987
0.0734011
0.0734364
0.0810411
0.073531
0.0736029
0.0740891
0.0996545
0.0747566
0.099
0.110744
0.0830962
0.114009
0.0922568
0.111641
0.0841098
0.115073
0.114626
0.144869
0.105423
0.109556
0.134602
0.137771
0.0984589
0.0965143
0.0971793
0.0756841
0.101881
0.0766657
0.10105
0.112284
0.0847156
0.115786
0.0941268
0.113114
0.0864331
0.116996
0.117146
0.147503
0.107006
0.111368
0.13708
0.140352
0.0999063
0.0987788
0.099329
0.0755021
0.103156
0.0775534
0.101126
0.113073
0.0883313
0.118403
0.091664
0.11121
0.0851584
0.116362
0.117547
0.148875
0.107585
0.111007
0.138366
0.140707
0.0994088
0.100493
0.100337
0.06731
0.0971232
0.0710512
0.0937416
0.103722
0.0754522
0.106624
0.109863
0.142327
0.098832
0.10245
0.131145
0.132987
0.0904353
0.097055
0.0966008
-0.0660085
-0.0673908
-0.0638143
-0.0498846
-0.068316
-0.0608265
-0.0617613
-0.0783728
-0.0664072
-0.0414472
-0.0694458
-0.0432686
-0.076508
0.0236082
0.0188664
0.0305473
0.0329504
0.022149
0.0195829
0.035924
0.021051
0.0252059
0.0277432
0.032408
0.0202849
0.0287274
0.0318354
0.0343615
0.022968
0.0273374
0.0273394
0.0281709
0.0248848
0.030185
0.0359889
0.0299804
0.0329296
0.0307039
0.0334838
0.029078
0.0327316
0.0262553
0.0505397
0.0485154
0.0285954
0.0469796
0.0491935
0.0356599
0.0475176
0.0528893
0.0398855
0.0521408
0.0403142
0.0367774
0.051847
0.0618753
0.0597416
0.0549644
0.056943
0.0546081
0.0535512
0.0612941
0.116952
0.0752432
0.0842081
0.0638642
0.0869298
0.0503658
0.0887001
0.0540663
0.0707063
0.0308241
0.0818428
0.0379288
0.123789
0.0544864
0.0390843
0.02515
0.0354695
0.0393606
0.0657946
0.032237
0.048964
0.0326281
0.0725594
0.0387583
0.0481671
0.0329925
0.0622379
0.0241783
-0.0670785
0.00405083
0.0263004
-0.0635289
-0.0819329
-0.0770403
0.0496517
0.0466857
0.0121909
0.0329698
-0.0577557
0.0320755
-0.0603701
-0.0715006
-0.0757366
-0.0493878
-0.0638583
-0.0787514
-0.0693727
-0.0581255
-0.0570568
-0.0665565
-0.052365
-0.0714852
-0.0517725
-0.061697
-0.0578729
-0.0732837
-0.0443686
-0.0701151
-0.0621165
-0.0360892
-0.0710615
-0.0599414
-0.0349859
-0.0543309
-0.0547957
-0.0528507
-0.0391813
-0.0561418
-0.0490579
-0.0512419
-0.0659945
-0.0551625
-0.0304813
-0.0566765
-0.03094
-0.0656226
-0.0864943
-0.0858363
-0.085241
-0.0710581
-0.086507
-0.0864486
-0.0877232
-0.0914838
-0.0891444
-0.0897506
-0.0906232
-0.0821546
-0.0639138
-0.0828666
-0.0847791
-0.0813023
-0.0817346
-0.0829377
0.0788034
0.0602532
0.0579966
0.0509007
0.0601552
0.058113
0.0479246
0.0459015
0.0450596
0.0378146
0.0418484
0.0410129
0.0389239
0.0369732
0.039885
0.0366336
0.0344826
0.0373425
0.0394747
0.0437411
0.0429249
0.038243
0.0409726
0.0404736
0.0333763
0.0320193
0.0345111
0.0261017
0.028317
0.0357657
0.03863
0.0376201
0.0326371
0.0305056
0.0599076
0.0544854
0.0622513
0.0560436
0.0594411
0.0546119
0.0633824
0.0497809
0.050793
0.0489396
0.053969
0.0490933
0.0530344
0.0483423
0.0487271
0.0431327
0.0449647
0.0442089
0.0450612
0.0453767
0.0476493
0.0393983
0.0399873
0.0420844
0.0357928
0.0422485
0.0388671
0.0361655
0.047997
0.0434208
0.04503
0.044485
0.0456351
0.0455224
0.0454289
0.0453557
0.0420521
0.0422232
0.0394889
0.0433689
0.045563
0.0425403
0.0316997
0.0258598
0.0292991
0.0377464
0.0308179
0.0283364
0.0418927
0.041565
0.0391005
0.0393018
0.0368869
0.0394986
0.0422622
0.0398747
0.0349887
0.0343404
0.0326077
0.0461396
0.0302271
0.0335637
0.0358093
0.0368773
0.0254731
0.0335082
0.0334432
0.0260847
0.0328657
0.0370168
0.0326451
0.0282367
0.0396856
0.0420938
0.0313986
0.028591
0.0449341
0.0308276
0.0344437
0.0375243
0.0412304
0.0303555
0.0377687
0.0413919
0.0379924
0.0395927
0.0351246
0.0370183
0.0420506
0.03822
0.0359144
0.0439783
0.0336754
0.0362758
0.0370188
0.0380625
0.0353225
0.0389186
0.0462168
0.0403681
0.0422414
0.0397042
0.0440264
0.0392667
0.0418201
0.0541715
0.0529356
0.0424013
0.0584076
0.0469008
0.0520077
0.0421871
0.058386
0.0456004
0.0589055
0.0633098
0.0603921
0.0699045
0.0581236
0.065211
0.0600022
0.0377558
0.0600832
0.0596801
0.0385431
0.0572713
0.0582137
0.0474225
0.0577663
0.0618273
0.0500699
0.0629116
0.0522916
0.0469545
0.0627172
0.0730926
0.0696935
0.0638999
0.0680669
0.0649385
0.0629952
0.0670897
0.0710113
0.127713
0.0424872
0.0359393
0.0854958
0.0936562
0.0739245
0.0964137
0.0600832
0.0998955
0.0649426
0.0780128
0.0404
0.0899175
0.0467578
0.132108
0.0657528
0.0523607
0.0371426
0.046361
0.0530106
0.0761736
0.0424721
0.0584182
0.0423424
0.0807717
0.046949
0.0567379
0.0419329
0.0710165
0.0373917
-0.0551371
0.0151497
0.0378783
-0.0529092
-0.0705222
-0.0665321
0.0594413
0.0575405
0.0221614
0.0426055
-0.0485361
0.0426295
-0.0505469
-0.0622511
-0.0660187
-0.0394726
-0.0525197
-0.0683876
-0.0592626
-0.047228
-0.0468215
-0.0570418
-0.0429726
-0.0620716
-0.0426979
-0.0533146
-0.0481615
-0.0643527
-0.0355071
-0.0610101
-0.0518677
-0.0260965
-0.0613068
-0.0502997
-0.0255522
-0.0461576
-0.0458609
-0.0443374
-0.0314596
-0.0473087
-0.040824
-0.0434058
-0.0574113
-0.0463771
-0.0218534
-0.0476201
-0.0219241
-0.0574486
-0.0782755
-0.0768108
-0.0774433
-0.0630926
-0.077735
-0.0780521
-0.0802246
-0.0828313
-0.0806587
-0.0808166
-0.0824151
-0.0739415
-0.0558157
-0.0749101
-0.0775662
-0.0728948
-0.0741249
-0.0752546
0.0608494
0.0837436
0.0630452
0.0610029
0.0554328
0.0629898
0.0842384
0.0656034
0.0634011
0.0565553
0.0654687
0.0635239
0.0483208
0.0521651
0.0491629
0.0443194
0.0423434
0.0451776
0.0536016
0.0518693
0.0511599
0.0444956
0.047898
0.0472162
0.0468771
0.0440612
0.0476339
0.0442265
0.0421712
0.0447764
0.0462967
0.0508294
0.0503159
0.0459284
0.0480449
0.047685
0.0417989
0.0400246
0.0428213
0.0348456
0.0369161
0.0435673
0.0464725
0.0456724
0.0407835
0.0389235
0.0665115
0.0623711
0.0579246
0.05901
0.0629438
0.0651752
0.0591538
0.0655386
0.0600983
0.0676613
0.0617449
0.0649193
0.0605173
0.0689841
0.0512742
0.048389
0.0490818
0.0466839
0.0523514
0.0483809
0.0478725
0.0560878
0.0564718
0.0548258
0.0597826
0.0551004
0.0590557
0.0544869
0.0551249
0.0495966
0.0509801
0.0504224
0.0512315
0.0518176
0.0538615
0.0462549
0.0470738
0.0493686
0.0432849
0.0491353
0.0459311
0.0433579
0.0549096
0.0500119
0.0518536
0.0507796
0.0528806
0.0520385
0.0520299
0.052093
0.0493767
0.0489744
0.0465527
0.0502994
0.0525397
0.0491562
0.0398893
0.0345277
0.0377953
0.0462527
0.0391439
0.0368074
0.050276
0.0489986
0.0465316
0.0469447
0.0439464
0.0472913
0.0492866
0.0471823
0.0429986
0.0426045
0.0406377
0.053884
0.0385594
0.0416775
0.0435299
0.0458024
0.0349169
0.0420023
0.0420212
0.0352969
0.0419107
0.0454125
0.0406523
0.0368133
0.0475136
0.0499124
0.0396105
0.0368775
0.0525271
0.0394124
0.0428312
0.0458809
0.0491406
0.0391103
0.0459288
0.0496279
0.046482
0.0483293
0.0434376
0.0457528
0.0506114
0.0469037
0.0442402
0.0522025
0.0425303
0.0447018
0.0454957
0.046448
0.0440173
0.0471005
0.0550699
0.0492842
0.0508992
0.0483546
0.0529217
0.0478586
0.0506065
0.0618639
0.0610005
0.050816
0.0666017
0.0562938
0.0590727
0.051491
0.0656612
0.0537467
0.0668616
0.0727328
0.0688786
0.0790716
0.0666114
0.0742714
0.0676717
0.0456324
0.0679644
0.0672199
0.0460285
0.0648639
0.0656534
0.0551757
0.0648544
0.0693487
0.0572751
0.0701521
0.0598054
0.0543019
0.0703994
0.082052
0.0783159
0.0712649
0.0768658
0.0724822
0.0704914
0.0758946
0.0797784
0.13583
0.0504209
0.0444511
0.093454
0.102619
0.0826886
0.105148
0.0694226
0.109647
0.0751189
0.0855412
0.0490235
0.0977432
0.0550215
0.140303
0.0738938
0.0598257
0.0451203
0.0550821
0.0610954
0.0840506
0.0502423
0.0660079
0.051008
0.0885243
0.0544191
0.0643394
0.0495846
0.0788289
0.0467002
-0.0463464
0.0237395
0.0467984
-0.0445448
-0.0617746
-0.0582029
0.0678862
0.0662568
0.0304709
0.0509301
-0.0408677
0.0511801
-0.042524
-0.0546558
-0.0580785
-0.0316252
-0.0439363
-0.060428
-0.0511645
-0.0388505
-0.0386992
-0.0495061
-0.03547
-0.0544602
-0.0352984
-0.0466302
-0.0403714
-0.0572787
-0.0284605
-0.0533113
-0.0433894
-0.0175788
-0.0533492
-0.0420873
-0.0173525
-0.0390287
-0.0382951
-0.0370274
-0.0246937
-0.039632
-0.0337723
-0.0366723
-0.0499927
-0.038947
-0.0143537
-0.0397473
-0.0139837
-0.0505073
0.0660995
0.0889216
0.0682123
0.0661649
0.0606985
0.0680437
0.0892845
0.0705233
0.068439
0.0617173
0.0702852
0.0684534
0.0540896
0.0575028
0.0548372
0.0501747
0.0484793
0.050913
0.0588507
0.0571478
0.0566474
0.0503941
0.0532069
0.0527783
0.0537358
0.0502988
0.0543064
0.0513278
0.0495997
0.0516105
0.0522337
0.0568558
0.0566625
0.0530185
0.0541927
0.0543011
0.0495915
0.0472411
0.0501923
0.0427801
0.044363
0.0505542
0.0531388
0.0528731
0.0473855
0.0460379
0.0717602
0.0676284
0.0635053
0.0642702
0.0683322
0.070312
0.064679
0.070553
0.0651861
0.0725366
0.066888
0.0698838
0.0658613
0.0739597
0.0571043
0.0542092
0.0550663
0.0524877
0.0583799
0.0540485
0.0536331
0.0616148
0.0617655
0.0599501
0.0650402
0.060439
0.0645576
0.0598149
0.0606814
0.0550826
0.0562949
0.0557657
0.0566316
0.0572535
0.0593119
0.0528169
0.0537795
0.0566053
0.0505446
0.0558192
0.05255
0.0503937
0.0606444
0.0556576
0.0575406
0.0560797
0.058811
0.0574547
0.0575389
0.0582565
0.0563117
0.0548332
0.0526289
0.056565
0.059219
0.054931
0.0469648
0.0422484
0.0451406
0.0533822
0.0465737
0.0441042
0.0571956
0.055737
0.0533188
0.0534731
0.0500141
0.0543518
0.0558415
0.0534358
0.0496015
0.0493848
0.04704
0.0600098
0.045412
0.0481692
0.0497343
0.0530576
0.0428528
0.0494483
0.0492824
0.0430419
0.0494997
0.0524715
0.0469885
0.0436826
0.054024
0.0561552
0.0462446
0.0434296
0.0585941
0.0462057
0.0496514
0.0527188
0.05536
0.0460943
0.0525073
0.0561048
0.0543201
0.0571062
0.0518898
0.0536514
0.0591046
0.0547049
0.0520114
0.0591444
0.0498654
0.0513126
0.0522346
0.0537365
0.0512081
0.053626
0.062413
0.0569877
0.0578712
0.0549966
0.0605299
0.0551474
0.0573184
0.0691295
0.068282
0.0577585
0.0738256
0.0635072
0.0660276
0.0586492
0.0729226
0.0608996
0.0740178
0.0809293
0.0761486
0.0863667
0.0739548
0.0820553
0.0747663
0.0519251
0.0747132
0.0743788
0.0521044
0.0717597
0.0722635
0.0616993
0.0715438
0.0758355
0.0637355
0.0770749
0.0667042
0.0604856
0.0771181
0.0888097
0.0853568
0.077513
0.0843042
0.0791883
0.0769048
0.0834688
0.0868032
0.143079
0.0578292
0.0522298
0.100304
0.108841
0.0889244
0.11128
0.0758014
0.116688
0.0818575
0.0905333
0.0558169
0.103919
0.0613681
0.147015
0.080915
0.0668037
0.0521726
0.0628939
0.0681984
0.0908233
0.0570217
0.0723505
0.0581713
0.0942945
0.0604056
0.0703895
0.0557607
0.0848607
0.0545889
-0.0390096
0.0308774
0.0543239
-0.0375774
-0.0545842
-0.0512516
0.0747493
0.0733613
0.0371486
0.0576297
-0.0346532
0.0582593
-0.0360011
-0.0484606
-0.0516684
-0.0251838
-0.0369251
-0.0540597
-0.0444767
-0.0320544
-0.0319336
-0.0434271
-0.0293763
-0.0482372
-0.0292625
-0.0411435
-0.0341298
-0.0515662
-0.0226824
-0.0471807
-0.0363888
-0.0105874
-0.0468179
-0.0355065
-0.0108582
-0.0335574
-0.0321167
-0.0312357
-0.0194505
-0.0335411
-0.0282915
-0.0316101
-0.0441981
-0.0330879
-0.00862269
-0.0335147
-0.00782715
-0.0451008
0.0708672
0.0935266
0.0728196
0.0708387
0.0653282
0.0725589
0.0937566
0.0748337
0.0729109
0.0662026
0.0745375
0.0728635
0.0591693
0.0622236
0.0597572
0.0554496
0.0538223
0.0560037
0.0633635
0.0616988
0.0613756
0.0555031
0.0579066
0.0576627
0.0596308
0.0557445
0.0599213
0.0572222
0.0554615
0.0572596
0.0575621
0.0620204
0.0621356
0.0587248
0.0594658
0.0598214
0.0558666
0.0530354
0.0561764
0.04907
0.0503985
0.0562714
0.0586979
0.0586424
0.0530169
0.0518669
0.0763455
0.0723279
0.0684176
0.0687604
0.0730732
0.0748452
0.0693846
0.0750572
0.0695357
0.076796
0.0712316
0.0743177
0.0704089
0.0782711
0.0621926
0.0594089
0.0602715
0.0575248
0.0636559
0.0590568
0.0586588
0.0661088
0.0662398
0.0642325
0.0693764
0.0649118
0.0690983
0.064087
0.0654384
0.0598662
0.0607383
0.0600802
0.0614291
0.0619665
0.0637116
0.0580193
0.0593851
0.0621965
0.0560724
0.0612248
0.0578449
0.0557451
0.0657812
0.0607099
0.0623453
0.0607033
0.0639554
0.062439
0.0623397
0.0633994
0.0617099
0.0598019
0.0576932
0.061772
0.0645121
0.0598242
0.0525697
0.0483806
0.0510008
0.0593493
0.0524293
0.049988
0.0628052
0.0611073
0.0588013
0.0588011
0.0551502
0.0598947
0.0611347
0.0586254
0.0550213
0.0550698
0.0525394
0.0651768
0.0510897
0.0535507
0.0549841
0.0590316
0.0492246
0.0553255
0.0553323
0.0491651
0.0558171
0.0581708
0.0524311
0.0494554
0.0596418
0.0614564
0.0520072
0.0489288
0.063867
0.0519212
0.0554097
0.0585943
0.0607577
0.052095
0.0580289
0.0616435
0.0603021
0.0636023
0.0581296
0.060099
0.0653902
0.0609741
0.0580715
0.0647806
0.0559626
0.0569838
0.0578222
0.0597422
0.057008
0.0589716
0.0682121
0.0632455
0.0637218
0.0607489
0.0665838
0.0610469
0.0628803
0.0755655
0.0748965
0.0634704
0.0800743
0.0695748
0.0720054
0.0644703
0.0790942
0.0668787
0.0800056
0.087617
0.0819553
0.0922291
0.0800614
0.0886231
0.080446
0.0576951
0.0811447
0.0808373
0.0579985
0.0782386
0.0787415
0.0674862
0.0777151
0.0819875
0.0697212
0.0833252
0.0727615
0.0663154
0.0831863
0.0947195
0.0920085
0.083227
0.0911041
0.0849394
0.0829327
0.0902059
0.0938194
0.15014
0.0641885
0.059092
0.106651
0.115091
0.0953487
0.117758
0.0821202
0.123483
0.0883688
0.0960636
0.0625552
0.109962
0.067557
0.153736
0.0867659
0.0726781
0.0578576
0.0693724
0.0740482
0.0966632
0.0626461
0.0778495
0.0644905
0.0998235
0.0657523
0.076053
0.0611293
0.0903321
0.060993
-0.0332182
0.036547
0.0603673
-0.031953
-0.048861
-0.0456669
0.0805582
0.0792716
0.0426449
0.0632689
-0.0294979
0.0640618
-0.0306642
-0.0434149
-0.0464151
-0.019952
-0.031351
-0.0489241
-0.0391781
-0.02658
-0.0264835
-0.0386109
-0.0244724
-0.0432845
-0.0243704
-0.0368925
-0.0290501
-0.0470804
-0.0179832
-0.0424905
-0.0309119
-0.00525009
-0.0417864
-0.0304085
-0.00591981
-0.0293986
-0.0272806
-0.0268189
-0.0153464
-0.0287483
-0.0239514
-0.0276557
-0.0398278
-0.0286303
-0.0042473
-0.0287681
-0.00319923
-0.0409489
0.0750401
0.097572
0.076863
0.0750211
0.069493
0.0765951
0.0977037
0.0786522
0.0768756
0.0702451
0.0784071
0.0768224
0.0637801
0.0664534
0.064269
0.0600943
0.0582373
0.0605976
0.0675397
0.0660058
0.0658417
0.0598971
0.062408
0.0622936
0.0645135
0.0603043
0.0645628
0.062236
0.06034
0.0620362
0.0620921
0.0664667
0.0667048
0.0634705
0.0640249
0.0645184
0.061204
0.0580552
0.061245
0.05449
0.0555879
0.0611484
0.0633477
0.0635178
0.0578104
0.0569041
0.0803974
0.0764878
0.0726454
0.0727332
0.0772781
0.078844
0.073476
0.0790661
0.0734254
0.0806154
0.0750832
0.0782861
0.074433
0.082135
0.0661166
0.0637154
0.0643038
0.0615642
0.0677816
0.0632373
0.0626003
0.0699604
0.0702751
0.0680391
0.0732881
0.068891
0.0732018
0.0677192
0.0694206
0.0639474
0.0647951
0.0640074
0.0656453
0.0660338
0.0674974
0.0623392
0.0640725
0.0668469
0.0606494
0.065713
0.0623281
0.0601906
0.0699952
0.0649987
0.0664894
0.0647439
0.0682094
0.0666039
0.066454
0.0677011
0.0661604
0.0641117
0.0619142
0.0662141
0.0688639
0.0640105
0.0574268
0.0536511
0.0559895
0.0645116
0.0574715
0.0550614
0.0676284
0.06557
0.063447
0.0632289
0.0594193
0.0645372
0.0655489
0.0629056
0.0596791
0.059923
0.0572261
0.0696165
0.0560054
0.0581593
0.0594553
0.0641319
0.0547843
0.0605538
0.0605758
0.0544935
0.061175
0.0631634
0.0569998
0.0544461
0.0643368
0.0659361
0.056884
0.0536057
0.0682534
0.0567332
0.0604227
0.0634428
0.0652822
0.057186
0.0627543
0.0662515
0.0654174
0.0692654
0.0635254
0.0657332
0.0707372
0.0664183
0.0633408
0.0695853
0.061083
0.0618903
0.0624882
0.0648338
0.0618773