/*--------------------------------*- C++ -*----------------------------------*\
  =========                 |
  \\      /  F ield         | OpenFOAM: The Open Source CFD Toolbox
   \\    /   O peration     | Website:  https://openfoam.org
    \\  /    A nd           | Version:  10
     \\/     M anipulation  |
\*---------------------------------------------------------------------------*/
FoamFile
{
    format      ascii;
    class       surfaceScalarField;
    location    "2000";
    object      phi;
}
// * * * * * * * * * * * * * * * * * * * * * * * * * * * * * * * * * * * * * //

dimensions      [0 3 -1 0 0 0 0];

internalField   nonuniform List<scalar> 
25516
(
32.1995
7.65555
1685.84
-1.0794
-1.34877
30.6079
11.8417
1625.8
-2.1078
-2.81971
7.06377
20.52
1548.38
7.89853
6.93158
7.25519
-4.48344
-5.20235
7.55609
366.339
1.93141
1.68027
1.66965
1.63823
33.7531
8.77333
1758.45
32.9792
12.8742
1704.42
8.50511
20.6326
1638.25
8.92131
7.73541
7.95855
-8.37936
8.25969
7.55775
398.713
-2.14023
-2.18658
2.33649
2.159
91.0142
-68.733
-2.13445
1.72221
0.457193
68.6886
-0.000517873
35.1343
1825.12
34.9387
1768.7
36.2077
1711.79
9.82549
1708.66
-8.88166
-7.397
-4.73034
-7.01305
9.51371
9.95769
10.3211
-6.73959
10.3376
6.29242
411.771
-2.91196
-380.678
-10.3325
9.96436
3.27245
380.686
0.0932677
365.559
0.0891578
-0.556835
-0.456684
-9.87856
42.8052
1720.09
-5.99416
-5.00183
-5.70312
-4.50919
1646.52
-3.53875
-2.35557
-3.20377
-2.82796
-0.0297252
1.8211
0.0229166
89.8714
-0.0854598
-1.68474
1.60012
0.114931
80.9081
-75.6052
-1.66838
1.47876
0.277502
75.528
-0.010605
-68.334
-1.34456
1.2874
0.0800568
68.3331
-0.02202
8.57706
0.613359
464.361
-8.58373
8.4368
0.801522
434.126
-0.490209
-8.24542
8.04209
0.639386
406.806
-1.07299
-7.89326
7.89985
1.04556
395.708
-1.05119
-398.453
-7.98798
7.79466
1.27566
398.422
-1.41588
-375.408
-7.42482
6.9635
1.8773
375.408
-0.514055
-356.07
6.03063
3.90749
356.091
-0.664263
-1.1778
-1.06544
-6.53697
-86.0626
-1.43557
-1.35884
1.39046
1.37585
86.0907
34.9787
2.20421
1904.48
-0.77609
-0.687621
-0.292262
-0.736247
34.7843
3.95307
1846.54
-0.825019
-0.546859
-1.01336
-1.18423
34.1044
4.59779
1767.2
-0.559269
-0.785861
-1.20577
-1.17281
33.4861
5.51211
1723.2
-1.04036
-1.54144
-1.24825
-0.854233
32.2229
7.37004
1685.64
-1.80179
-1.7196
-1.05696
-1.32909
30.6298
11.5678
1625.68
-2.36351
-2.59404
-2.08577
-2.81587
7.06294
20.3415
1548.54
7.90401
6.93705
7.25725
-4.20546
-5.16272
-4.45825
-5.20995
-366.527
-7.38866
7.55411
366.492
1.93435
1.68333
1.6739
1.64118
35.4477
1.99432
1940.96
35.5935
3.95536
1915.41
35.2467
5.12242
1857.65
34.6472
6.29961
1805.47
33.7975
8.39905
1758.27
33.0266
12.5462
1704.21
8.51641
20.3824
1638.09
8.92842
7.73661
7.96259
-8.35693
-397.651
8.26776
7.52165
398.735
-91.1836
-2.12827
-2.18575
2.33425
2.14571
91.0176
-68.7069
-2.13099
1.72157
0.441844
68.6667
0.00777198
35.8614
1969.81
36.1089
1962.51
36.0336
1921.52
35.6645
1875.25
35.1816
1825.01
34.9886
1768.57
36.2293
1711.62
9.82521
1708.47
-8.82866
-7.35061
-4.71871
-6.98317
9.5198
9.95358
10.3152
-6.70914
-411.802
10.3356
6.2474
411.754
-2.8888
-380.704
-10.3263
9.9612
3.24885
380.709
0.105772
-365.515
365.528
0.105645
-0.548923
-0.447571
-9.87176
42.7945
1719.9
-5.9259
-4.9557
-5.68274
-4.49344
1646.36
-3.49306
-2.32758
-3.19077
-2.82233
-110.537
-0.314004
2.0779
0.324153
110.497
-93.0736
-0.035891
-1.93868
1.89698
0.0749435
93.0762
-89.8332
-0.0215291
-1.83529
1.82174
0.0176861
89.8506
-80.8445
-0.0752577
-1.6855
1.60064
0.105358
80.8993
-75.5775
-1.66773
1.4789
0.268437
75.5019
-0.00402679
-68.3075
-1.34562
1.28831
0.0740185
68.3095
-0.018676
-0.700617
-464.377
8.57706
0.600583
464.347
-0.666679
-434.108
-8.58529
8.4389
0.791387
434.129
-0.486556
-406.768
-8.24744
8.0479
0.631137
406.823
-1.06128
-395.697
-7.89829
7.90392
1.03473
395.718
-1.04062
-398.464
-7.99087
7.79684
1.26234
398.436
-1.40037
-375.417
-7.43181
6.96481
1.86403
375.42
-0.503442
-356.095
6.0401
3.87656
356.109
-0.659219
-1.16712
-1.05905
-6.54149
-86.0428
-1.40691
-1.35822
1.3856
1.35592
86.0664
34.9846
2.07766
1904.37
-0.752564
-0.664439
-0.284343
-0.727906
34.7808
3.81275
1846.44
-0.80471
-0.52178
-1.00739
-1.17456
34.1161
4.45526
1767.07
-0.535352
-0.761006
-1.19655
-1.16255
33.4974
5.35226
1723.08
-1.01615
-1.51677
-1.23737
-0.843396
32.2346
7.20949
1685.53
-1.77699
-1.69743
-1.04498
-1.31958
30.6283
11.4652
1625.65
-2.34012
-2.58729
-2.07519
-2.81698
7.06815
20.2838
1548.72
7.90561
6.93976
7.26077
-4.18069
-5.16864
-4.44361
-5.21464
-366.669
-7.38302
7.55503
366.624
1.93612
1.68577
1.67611
1.64303
35.4542
1.79735
1940.88
35.6027
3.75897
1915.32
35.2634
4.87809
1857.57
34.6662
6.02519
1805.39
33.8114
8.15791
1758.17
33.0294
12.3438
1704.11
8.51459
20.2325
1638.02
8.92939
7.74324
7.96609
-8.35411
-397.673
8.27175
7.5082
398.762
-91.1852
-2.12075
-2.18644
2.33378
2.14305
91.0156
-68.6973
-2.12872
1.7211
0.432946
68.6608
0.0112058
35.8622
1969.75
36.1254
1962.46
36.0538
1921.45
35.6895
1875.14
35.203
1824.91
35.0051
1768.49
36.2395
1711.52
9.82392
1708.38
-8.79805
-7.32474
-4.71661
-6.97212
9.51964
9.95241
10.3178
-6.69327
-411.794
10.3305
6.22495
411.755
-2.88289
-380.731
-10.3219
9.95959
3.23838
380.738
42.7906
1719.79
-5.88093
-4.92244
-5.67328
-4.48831
1646.32
-3.47604
-2.32274
-3.18816
-2.81651
-110.536
-0.312984
2.07776
0.323467
110.496
-93.046
-0.0295398
-1.93829
1.89676
0.0714213
93.0456
-89.8051
-0.0156371
-1.83494
1.82181
0.0130968
89.8208
-80.8335
-0.068041
-1.686
1.60087
0.099084
80.8876
-75.5577
-1.66723
1.47901
0.261877
75.4842
-0.000156879
-68.2924
-1.34665
1.28931
0.0694575
68.2972
-0.0168711
-0.697646
-464.366
8.5768
0.594105
464.34
-0.667538
-434.117
-8.58633
8.4406
0.787025
434.144
-0.488029
-406.788
-8.24904
8.0478
0.628832
406.848
-1.05526
-395.707
-7.90191
7.90692
1.02696
395.73
-1.03173
-398.479
-7.9931
7.79854
1.25323
398.452
-1.38627
-375.427
-7.43277
6.96499
1.85371
375.427
-0.494973
-356.107
6.04422
3.85452
356.112
-0.652651
-1.15822
-1.05305
-6.54439
-86.0096
-1.38334
-1.35849
1.38493
1.33435
86.0321
34.9779
1.98996
1904.32
-0.740815
-0.651673
-0.279111
-0.723715
34.7955
3.71038
1846.39
-0.793443
-0.509108
-1.00322
-1.16888
34.1229
4.3517
1767.01
-0.522874
-0.747613
-1.19228
-1.15713
33.5044
5.24691
1723.03
-1.00196
-1.50215
-1.23158
-0.837949
32.2408
7.1161
1685.48
-1.76287
-1.68514
-1.03796
-1.31296
30.6305
11.4149
1625.64
-2.32802
-2.58482
-2.06793
-2.81772
7.07028
20.2577
1548.9
7.9063
6.94196
7.26104
-4.16478
-5.17131
-4.43166
-5.21783
-366.79
-7.37089
7.55534
366.727
1.93726
1.68853
1.67866
1.64433
35.4607
1.67471
1940.82
35.6186
3.61877
1915.25
35.2739
4.75529
1857.51
34.6774
5.91722
1805.32
33.8296
8.04792
1758.09
33.0479
12.2407
1704.07
8.5158
20.1412
1638.03
8.93292
7.74431
7.96682
-8.35786
-397.708
8.27507
7.50373
398.803
-91.1847
-2.11416
-2.18631
2.33256
2.13788
91.0147
-68.7
-2.12707
1.72088
0.428164
68.6658
0.012206
35.8763
1969.7
36.1409
1962.42
36.0664
1921.42
35.7039
1875.09
35.2226
1824.86
35.0243
1768.43
36.2437
1711.46
9.82081
1708.36
-8.78373
-7.31551
-4.71684
-6.96379
9.5146
9.94997
10.3158
-6.68576
-411.792
10.3284
6.21245
411.758
-2.86662
-380.744
-10.3204
9.95587
3.22904
380.746
42.7833
1719.71
-5.86115
-4.90494
-5.66163
-4.47854
1646.28
-3.4614
-2.31756
-3.17443
-2.81281
-110.534
-0.312082
2.07757
0.323174
110.494
-93.0113
-0.0246039
-1.93753
1.89622
0.0671474
93.0101
-89.7719
-0.0117732
-1.83437
1.82147
0.00946952
89.7871
-80.822
-0.0632901
-1.68627
1.60104
0.0943755
80.8761
-75.5461
-1.66702
1.47916
0.25769
75.4746
0.0017115
-68.2877
-1.34754
1.29023
0.0663791
68.2947
-0.0160821
-0.695637
-464.36
8.5763
0.591194
464.335
-0.671532
-434.135
-8.5869
8.44194
0.788216
434.163
-0.490402
-406.81
-8.25051
8.05015
0.628948
406.872
-1.05064
-395.716
-7.90477
7.90903
1.02514
395.737
-1.02364
-398.493
-7.99513
7.79975
1.24845
398.463
-1.37566
-375.431
-7.43346
6.96505
1.84702
375.428
-0.486917
-356.101
6.04651
3.83374
356.096
-0.645617
-1.15057
-1.04524
-6.54672
-85.9753
-1.36697
-1.35974
1.38684
1.31662
85.9986
34.9841
1.92573
1904.32
-0.733581
-0.645215
-0.278102
-0.722343
34.7974
3.67998
1846.36
-0.789185
-0.503713
-1.00179
-1.16763
34.1278
4.31908
1766.97
-0.518284
-0.742087
-1.19196
-1.15497
33.5105
5.19618
1723
-0.994739
-1.49584
-1.22945
-0.835949
32.2401
7.06565
1685.47
-1.75631
-1.6791
-1.03539
-1.31143
30.6228
11.3731
1625.67
-2.32078
-2.58451
-2.06507
-2.81977
7.07278
20.2172
1549.09
7.90696
6.94453
7.26159
-4.15166
-5.17605
-4.42106
-5.22181
-366.878
-7.3542
7.55606
366.796
1.93828
1.68975
1.67984
1.64546
35.4604
1.57534
1940.79
35.6199
3.51984
1915.25
35.2795
4.67257
1857.5
34.6837
5.8327
1805.28
33.8305
7.94866
1758.06
33.0496
12.1769
1704.04
8.51663
20.0965
1638.04
8.9332
7.74428
7.96686
-8.34836
-397.757
8.27823
7.5143
398.83
-91.1828
-2.10867
-2.18639
2.33166
2.1337
91.0125
-68.711
-2.12605
1.72079
0.425993
68.6784
0.0118556
35.8768
1969.67
36.1359
1962.4
36.0747
1921.4
35.7126
1875.09
35.2233
1824.85
35.0311
1768.41
36.2483
1711.43
9.81571
1708.36
-8.78583
-7.30214
-4.70682
-6.95291
9.51574
9.95036
10.3137
-6.67354
-411.801
10.3242
6.21001
411.756
-2.85829
-380.745
-10.3168
9.95283
3.22763
380.74
42.7729
1719.69
-5.85891
-4.91023
-5.64644
-4.47162
-3.46868
-2.31373
-3.17595
-2.81609
-110.531
-0.311324
2.07738
0.322941
110.49
-92.9747
-0.0212764
-1.93664
1.89547
0.0636072
92.9735
-89.7387
-0.00943322
-1.83365
1.82099
0.00648552
89.7543
-80.811
-0.0602107
-1.68638
1.60119
0.0908771
80.8656
-75.542
-1.66693
1.47932
0.255164
75.4722
0.00230001
-68.2908
-1.34839
1.29122
0.0646153
68.2994
-0.0160095
-0.69677
-464.357
8.57573
0.590992
464.334
-0.673846
-434.155
-8.58726
8.44296
0.788601
434.185
-0.491629
-406.833
-8.25141
8.05169
0.632449
406.892
-1.04756
-395.722
-7.90694
7.91049
1.02564
395.741
-1.01799
-398.5
-7.99615
7.80053
1.24624
398.467
-1.36584
-375.427
-7.4337
6.96461
1.8417
375.42
-0.479918
-356.073
6.04749
3.81581
356.056
-0.637479
-1.14351
-1.03695
-6.54868
-85.9466
-1.35643
-1.36119
1.39045
1.30156
85.9722
34.9839
1.89935
-0.730851
-0.643689
-0.274178
-0.720109
34.7984
3.62266
-0.788806
-0.501317
-1.00131
-1.16684
34.1327
4.26272
1766.97
-0.517329
-0.740871
-1.1919
-1.15516
33.5131
5.16912
1723
-0.993289
-1.49389
-1.22849
-0.834871
32.2393
7.03982
1685.48
-1.75383
-1.6768
-1.03368
-1.30972
30.6295
11.355
1625.72
-2.3176
-2.58584
-2.06317
-2.82097
7.0747
20.2258
1549.27
7.90711
6.94559
7.26141
-4.14109
-5.17987
-4.4129
-5.22573
-366.928
-7.33944
7.55637
366.829
1.93926
1.69068
1.68089
1.64632
35.4603
1.51395
35.6212
3.45886
35.2865
4.5815
1857.51
34.6893
5.74211
1805.3
33.8306
7.88857
1758.07
33.0476
12.1234
1704.06
8.51629
20.0693
1638.08
8.93326
7.74395
7.96643
-8.35461
-397.784
8.2833
7.5139
398.858
-91.1796
-2.10418
-2.18663
2.33104
2.13032
91.009
35.8769
36.1496
36.0823
35.7211
35.2356
35.0309
36.2479
9.81398
-8.7904
-7.29918
-4.71304
-6.95133
9.51442
9.94897
10.3128
-6.67027
-411.807
10.3213
6.20943
411.76
-5.85919
-4.904
-5.64783
-4.46564
-110.526
-0.310704
2.07719
0.322746
-92.9394
-0.0192577
-1.93573
1.89471
0.0607422
92.9389
-89.7079
-0.00842088
-1.83295
1.82048
0.00439409
89.7244
-80.8019
-0.0585901
-1.68643
1.60132
0.0885622
80.8571
-75.5441
-1.66701
1.47955
0.253861
75.4755
0.00212645
-68.2997
-1.34923
1.29218
0.0636887
68.3096
-0.016444
-0.676585
-434.178
8.4436
0.791324
-0.49428
-406.85
-8.2519
8.05264
0.636598
406.907
-1.04485
-395.722
-7.90796
7.91124
1.02576
395.738
-1.01243
-398.501
-7.99689
7.80086
1.24488
398.464
-1.357
-375.415
-7.43352
6.96354
1.83831
375.404
-0.473491
-356.022
6.04641
3.79911
355.995
-0.629327
-1.13684
-1.02865
-6.54976
-85.9283
-1.3501
-1.36268
1.3947
1.28967
85.9567
34.1365
4.24291
-0.518616
-0.740506
-1.19103
-1.15292
33.5182
5.1335
1723.04
-0.993674
-1.49483
-1.22587
-0.832244
32.2382
7.0024
1685.52
-1.7536
-1.67642
-1.03056
-1.30717
30.619
11.3265
1625.79
-2.31628
-2.58667
-2.05948
-2.82069
7.07589
20.1993
1549.44
7.90707
6.94615
7.26132
-4.13409
-5.18309
-4.40511
-5.22738
-366.943
-7.32526
7.55917
366.825
1.94007
1.69141
1.68181
1.64701
35.2913
34.6957
1805.34
33.8303
1758.13
33.0467
1704.09
8.51604
1638.12
8.93294
7.74332
7.96631
-8.36333
-397.814
7.52299
398.887
-80.7955
-0.0580571
1.60145
0.0868809
80.8517
-75.5508
-1.6672
1.47982
0.253342
75.4833
0.00150406
-68.3131
-1.35004
1.29311
0.0633386
68.3238
-0.0171423
-1.04083
-395.719
7.91192
1.02513
395.731
-1.00724
-398.495
-7.99715
7.80089
1.24261
398.456
-1.34933
-375.396
-7.43306
6.96226
1.8335
375.382
-0.467585
-355.95
6.04423
3.78387
355.914
-0.621484
-1.13192
-1.02123
-6.55031
-85.9214
-1.34726
-1.36402
1.39894
1.28132
85.9524
33.5229
5.05639
-0.993695
-1.49444
-1.21975
-0.825516
32.2423
6.94134
1685.61
-1.75245
-1.67511
-1.02394
-1.30179
30.6179
11.3152
1625.87
-2.31522
-2.58799
-2.05309
-2.8164
7.076
20.2193
1549.59
7.90708
6.94574
7.26088
-4.12917
-5.1827
-4.39723
-5.22631
-366.922
-7.31514
7.55872
366.792
1.94042
1.69171
1.68229
1.6473
34.7046
33.8485
1758.19
33.061
1704.18
8.51557
1638.25
8.93287
7.74292
7.96929
-8.37893
-397.819
7.52657
398.899
-75.5615
1.48016
0.253349
75.4949
0.000665436
-68.3298
-1.35082
1.29402
0.0633615
68.3412
-0.0179605
-1.00029
-398.486
7.8008
1.23682
398.447
-1.34028
-375.371
-7.43245
6.96091
1.82654
375.357
-0.462895
-355.862
6.04182
3.76742
355.821
-0.615201
-1.12626
-1.0141
-6.55021
-85.9255
-1.34751
-1.3655
1.40318
1.27598
85.9594
32.254
6.83872
-1.74983
-1.67274
-1.00873
-1.28687
30.6129
11.2233
1626.04
-2.31165
-2.58592
-2.04068
-2.8078
7.07579
20.1717
1549.74
7.90963
6.94781
7.26012
-4.12249
-5.1797
-4.38409
-5.22113
-366.874
-7.3039
7.55887
366.735
1.94064
1.69072
1.68131
1.6475
33.8612
33.06
8.5208
1638.41
8.93589
7.73968
7.9692
-8.3811
-397.833
7.52976
398.918
-68.3488
1.29492
0.0636186
68.3607
-0.0188065
-1.32921
-375.353
6.96219
1.81518
375.334
-0.458373
-355.764
6.03677
3.74821
355.725
-0.608739
-1.12084
-1.00779
-6.54987
-85.9406
-1.35004
-1.36659
1.407
1.27324
85.977
30.6332
-2.30171
-2.57745
-2.00448
-2.7786
7.0775
20.0899
1549.95
7.90876
6.94134
7.26167
-4.11243
-5.1739
-4.35862
-5.20894
-366.81
-7.29396
7.55676
366.664
1.94074
1.69081
1.68153
1.64757
8.52097
1638.69
8.93934
7.74799
7.97585
-8.38838
-397.852
7.53966
398.93
-0.454698
-355.675
6.03683
3.72163
355.64
-0.603463
-1.1145
-1.00148
-85.9651
-1.35423
-1.36759
1.41053
1.27241
86.004
7.0786
19.8431
1550.31
7.91068
6.94441
7.26582
-4.09478
-5.15942
-4.30746
-5.18541
-366.727
-7.28193
7.54893
366.578
1.94196
1.6908
1.68036
1.64751
8.52085
1639.12
8.94065
7.75861
7.99732
-8.37568
-397.873
8.29658
7.51684
398.956
-2.09315
-2.18776
2.33008
2.11886
90.9891
-0.450522
-355.604
6.041
3.65786
355.604
-0.597682
-1.10195
-0.990869
-85.9994
-1.35851
-1.36875
1.41381
1.27238
86.0405
7.08701
19.2093
7.92408
6.96202
7.29646
-4.01659
-5.10334
-4.12632
-5.0821
-366.649
-7.25761
7.51488
366.513
1.94444
1.69069
1.68039
1.64983
8.53897
8.9625
7.7948
8.03899
-8.32892
-397.916
8.3106
7.4281
399.046
-91.1556
-2.09135
-2.18827
2.33124
2.11752
90.9865
-0.445341
-355.639
6.05463
3.4945
-0.590197
-1.07427
-0.972236
-86.046
-1.36374
-1.37157
1.41711
1.27336
86.0908
-366.623
-7.19113
7.39057
1.94605
1.68881
1.68006
1.64974
-8.13572
-398.061
8.34851
7.13453
-91.17
-2.08941
-2.18919
2.33089
2.10919
91.0085
-68.7063
1.72502
0.38411
-0.00143956
361.183
-0.576206
-0.270163
-0.976191
-0.498613
2.98583
2.34941
2.3
2.4306
2.33198
87.3877
1.02034
-87.7275
-0.673836
-2.38084
-75.5427
1.47856
0.131534
-0.00936091
1.3407
69.361
-69.3578
-1.37098
0.0387737
-0.0116538
7.5592
389.502
-0.664256
0.347319
-0.88465
0.371524
1.08157
7.04359
373.434
-0.567916
-0.028841
-0.182967
0.336401
0.946687
-68.3495
1.28592
0.0936357
-0.0233928
33.6745
-33.6966
-0.954702
0.962254
0.0145813
6.41643
352.557
0.112169
-0.190154
-0.147672
-0.612863
1.45454
1.48177
337.689
0.00206616
-0.581218
-0.48119
-0.716049
1.61328
1.51045
1.53163
2.03848
85.0961
1.19023
-85.4307
-0.82731
1.45343
1.43564
87.5701
1.09955
-87.5875
-1.29167
-1.22617
1.44237
45.2947
-45.3263
0.0249046
-1.28038
-86.0945
1.37144
1.38321
7.38859
346.892
-6.02999
-1.0694
-1.67935
-1.50065
-3.81381
1.2794
1.12932
1.52434
2.57734
-2.48997
2.46827
52.0347
0.0521453
7.76055
385.423
364.804
2.03378
-1.93754
-2.16084
-2.59574
-2.09214
1.87518
2.02734
1.88468
8.76393
7.20326
1.67244
1.64027
1.682
1.93363
52.0034
-52.0038
-2.49974
2.4324
0.0677382
7.74857
386.166
5.96679
2.0283
364.917
-2.58912
-2.08161
-2.15092
-1.93046
2.03439
1.88536
1.87564
8.56384
-3.69138
3.43612
109.735
2.48368
109.589
-109.738
-3.73995
3.43388
-2.93603
0.934202
81.2771
-0.0769785
10.1856
397.198
-9.497
-1.39549
-2.11413
-2.00058
-1.91062
384.489
10.0799
-1.03363
-1.38224
-1.67882
-0.59378
4.7659
-2.20082
-91.0162
2.33116
2.18593
2.13059
81.2963
-81.2589
-2.92551
0.827421
-0.0699503
10.1819
397.202
-9.50352
6.7559
-2.00532
-1.91145
-2.12036
-1.40132
10.0786
384.497
-1.68426
-0.600853
-1.38611
-1.04288
4.80952
361.209
-0.488273
-0.961043
-0.565704
-0.255696
2.33316
2.42952
2.34835
2.30135
2.37283
0.221525
-0.534742
-2.39672
87.7248
-68.6756
1.72436
0.366389
0.00851221
361.193
-0.569765
-0.257202
-0.959119
-0.48717
2.95514
2.34844
2.30121
2.42958
2.33306
2.37361
87.3782
1.01549
-87.7228
-0.663796
-2.38063
-0.181897
2.37145
86.7727
86.4803
0.565343
-86.7646
-0.275293
2.36792
0.303275
94.204
-94.2015
1.74688
-0.223178
1.57783
0.0500244
76.9356
-76.945
-1.61294
-0.00559776
0.0411827
75.0924
-75.1035
1.55036
-0.0026252
1.48223
0.0481919
72.3674
-72.3747
-1.49352
-0.0295619
1.47332
72.7597
-0.0175808
1.40061
0.0170184
-1.42818
69.4609
0.00431196
0.0316349
72.737
-72.7474
1.47388
-0.0128452
1.40104
0.0300775
69.4481
-69.4577
-1.42926
0.00768601
1.32008
66.4783
-0.00761369
0.0954834
66.4574
-66.4692
1.32012
-0.00276467
-110.496
2.07778
0.232949
1.93876
95.6556
-95.6634
-1.98667
0.105737
8.50588
457.28
0.745078
-0.38317
0.0627243
0.00836638
-0.560624
8.37593
433.837
-0.346309
-0.163473
-0.133924
-0.0448779
0.806215
-93.0872
1.89713
0.0964414
1.83281
89.5718
-89.5987
-1.83862
0.0809215
8.1339
410.841
0.0388187
-0.177479
-0.0737097
-0.280312
0.71871
7.93137
396.856
0.0809448
-0.23624
0.0710194
-0.258454
0.532335
-1.7417
0.0189216
84.432
7.69312
386.826
-0.327814
0.095313
0.17233
-0.228389
375.002
7.4377
-0.377261
0.338925
0.198052
-0.616022
0.681595
-89.8628
1.82181
0.0721952
1.68295
84.3662
-84.4267
-1.74293
0.150615
7.6892
386.831
0.167538
-0.234024
0.0900286
-0.333546
0.547349
7.43927
374.995
0.19492
-0.620808
0.335366
-0.381959
0.730016
-2.04554
0.457589
83.2506
-0.009053
7.48395
368.487
-0.574216
0.24774
-0.140223
-0.682344
384.707
7.83446
-0.53418
-0.91878
-0.375123
0.203562
1.24839
-80.9042
1.59928
0.23877
1.66244
83.2914
-83.235
-2.03717
0.319221
-0.000968241
7.48503
368.489
-0.141493
-0.684739
0.246198
-0.576903
1.10996
7.83442
384.718
-0.376392
0.203531
-0.918921
-0.535827
1.26747
-1.37231
0.0591054
69.34
-0.0103953
7.56397
389.52
0.378612
-0.87653
-0.656199
0.354512
373.453
7.04573
0.342969
-0.173274
-0.559834
-0.0209357
0.910886
-75.514
1.47876
0.122061
-0.00187597
1.34171
69.3312
-69.3249
-1.37153
0.0294661
-0.00600393
7.56555
389.523
-0.656226
0.35393
-0.876786
0.378556
1.06635
7.04548
373.455
-0.56047
-0.0199719
-0.172429
0.342762
0.927687
-0.9587
0.939257
33.6766
0.0173347
6.41879
352.571
-0.602392
-0.140335
0.122417
-0.183071
337.705
1.61443
-0.708132
-0.473361
0.0105896
-0.573503
1.53425
1.48281
1.51289
2.00284
-68.3202
1.28682
0.0869149
-0.0193661
33.6491
-33.6641
-0.956169
0.950198
0.0209768
6.42036
352.564
0.1246
-0.184378
-0.140475
-0.601239
1.43407
1.48339
337.697
0.0105817
-0.573342
-0.472327
-0.709133
1.61511
1.51256
1.53389
2.02673
-0.719383
1.48475
85.4311
1.44493
1.07045
-1.2773
-1.24294
87.575
85.0944
1.17874
-85.4304
-0.814698
1.45531
1.43525
87.5209
1.08428
-87.5502
-1.26155
-1.22868
45.2722
0.0318037
1.41238
45.2043
-45.2269
0.0454411
347.053
-6.04999
-3.79528
-1.4911
-1.05441
-1.66946
2.5742
1.5263
1.27816
1.1315
-1.2795
-86.0806
1.36561
1.36407
7.38608
347.179
-6.03748
-1.04479
-1.66891
-1.4905
-3.78157
1.27748
1.13378
1.52847
2.57175
-2.48633
2.43774
51.978
0.073932
7.77429
385.493
364.88
2.03464
-1.93419
-2.13731
-2.59164
-2.06982
1.87576
2.02815
1.88519
8.72043
7.20739
1.67507
1.64253
1.68493
1.93595
51.9599
-51.9564
-2.49509
2.40717
0.0843636
7.75613
386.232
5.96975
2.02755
364.977
-2.58442
-2.06166
-2.12993
-1.92598
2.03503
1.88553
1.87596
8.53703
-3.67455
3.43164
109.738
2.47615
109.585
-109.736
-3.72691
3.42983
-2.93044
0.922644
81.2443
-0.0712051
10.1782
397.196
-9.49205
-1.38861
-2.10863
-1.98925
-1.9026
384.516
10.0767
-1.03401
-1.37011
-1.66912
-0.590892
4.74602
-2.19896
-91.0185
2.3282
2.18013
2.12793
81.2749
-81.2336
-2.92117
0.81867
-0.0667602
10.172
397.196
-9.49601
6.73758
-1.99598
-1.91032
-2.11282
-1.39529
10.0754
384.496
-1.67241
-0.592859
-1.37195
-1.03732
4.79173
361.199
-0.47801
-0.944495
-0.560574
-0.245812
2.33292
2.42931
2.34822
2.30096
2.37236
0.214626
-0.531483
-2.39657
87.7192
-68.662
1.72383
0.35571
0.0130809
361.171
-0.563102
-0.249828
-0.945196
-0.483732
2.93627
2.34795
2.29929
2.42899
2.33242
2.37323
87.3708
1.01238
-87.714
-0.662106
-2.38029
-0.170943
2.37041
86.7589
0.558732
-86.7523
-0.273759
2.36719
1.7469
94.1958
-0.223228
1.57774
0.0472475
-1.61289
76.928
-0.00450577
0.301875
94.1935
-94.1906
1.74693
-0.222292
1.57767
0.0447081
76.9066
-76.9135
-1.61312
-0.00238253
1.55024
75.0852
-0.00121013
1.48439
0.0380517
-1.49357
72.366
-0.0274746
0.0343087
75.0618
-75.0699
1.55009
0.00133962
1.48286
0.0399492
72.3547
-72.3597
-1.49366
-0.0241778
1.47394
72.7371
-0.01119
1.40156
0.00923824
-1.4295
69.4568
0.0100681
0.0252522
72.7215
-72.7294
1.47441
-0.0089238
1.40181
0.0243972
69.4513
-69.4585
-1.4304
0.0113981
1.32062
66.4634
-0.000292257
0.0878945
66.4521
-66.4608
1.32054
0.00205063
-1.98633
0.101103
95.6494
8.50576
457.287
0.0152208
-0.552753
-0.375193
0.0698419
433.869
8.37712
-0.0376217
-0.126558
-0.33841
-0.156973
0.756238
-110.497
2.0777
0.233014
1.93849
95.6205
-95.6317
-1.98621
0.103661
8.50594
457.282
0.740765
-0.382468
0.062686
0.00834558
-0.559931
8.37807
433.878
-0.344926
-0.164494
-0.133667
-0.0446201
0.805833
-1.83861
0.0304358
89.5827
8.1353
410.879
-0.272913
-0.0655535
0.0462248
-0.169744
396.895
7.93518
-0.250094
0.0789589
0.0886363
-0.227376
0.470951
-93.062
1.89706
0.0917476
1.83255
89.5361
-89.5648
-1.83843
0.0745116
8.13672
410.886
0.0404678
-0.175846
-0.071482
-0.279197
0.720009
7.93633
396.897
0.084194
-0.233544
0.0738451
-0.255509
0.529814
-1.74287
0.0124449
84.4204
7.70127
386.855
-0.325261
0.0983996
0.176044
-0.225344
375.019
7.44183
-0.372379
0.343918
0.204194
-0.61252
0.672385
-89.8365
1.822
0.0671649
1.68342
84.3515
-84.4131
-1.74376
0.146322
7.69222
386.851
0.170575
-0.231384
0.09271
-0.331216
0.54675
7.44242
375.003
0.20001
-0.618048
0.33909
-0.377777
0.721953
-2.04324
0.448099
83.2211
-0.00222507
7.48795
368.503
-0.568486
0.255397
-0.133427
-0.675597
384.731
7.8367
-0.52808
-0.910908
-0.368674
0.210892
1.23456
-80.8936
1.59957
0.231871
1.66182
83.2676
-83.2092
-2.03521
0.311164
0.00380994
7.48708
368.495
-0.136607
-0.679556
0.252009
-0.572277
1.10056
7.83612
384.731
-0.371063
0.209555
-0.911877
-0.530781
1.25579
-1.37291
0.0504412
69.3134
-0.00535042
7.56688
389.526
0.385104
-0.869472
-0.649469
0.360376
373.455
7.05204
0.348699
-0.16346
-0.553411
-0.0127026
0.895922
-75.4919
1.47888
0.114699
0.00247715
1.34283
69.314
-69.3046
-1.37214
0.0222376
-0.00232753
7.5679
389.515
-0.649755
0.358949
-0.870182
0.384114
1.05644
7.04857
373.444
-0.555032
-0.0122665
-0.164554
0.347762
0.914672
-0.960123
0.92874
33.6575
0.02301
6.42101
352.565
-0.592267
-0.134047
0.133279
-0.17785
337.693
1.61583
-0.702317
-0.465757
0.0173336
-0.566958
1.53574
1.48418
1.51452
1.99321
-68.3023
1.28784
0.0820713
-0.0172711
33.6468
-33.6566
-0.957657
0.94208
0.0253746
6.42212
352.544
0.133885
-0.179348
-0.13543
-0.592609
1.42115
1.48482
337.666
0.016599
-0.567203
-0.465759
-0.703273
1.61642
1.514
1.53534
2.01769
-0.707364
1.48634
85.4278
1.44499
1.05476
-1.24859
-1.24517
87.5149
85.085
1.16995
-85.4235
-0.803412
1.45682
1.43564
87.4344
1.06901
-87.4711
-1.23765
-1.23026
45.1914
0.0510816
1.38734
45.1525
-45.1655
0.0613086
347.273
-6.05445
-3.76551
-1.47981
-1.03149
-1.65815
2.56938
1.53057
1.2765
1.13595
-1.27968
-86.0495
1.36426
1.34269
7.37664
347.333
-6.04248
-1.02264
-1.65532
-1.47777
-3.75308
1.27598
1.13814
1.5327
2.56773
-2.48138
2.41364
51.9389
0.0887314
7.78103
385.557
364.923
2.03618
-1.92833
-2.11857
-2.58581
-2.05201
1.87571
2.02722
1.88509
8.69584
7.20785
1.67678
1.64282
1.68689
1.93594
51.932
-51.9247
-2.48997
2.38777
0.0948064
7.76148
386.298
5.96603
2.02775
365.009
-2.57711
-2.04588
-2.11283
-1.91995
2.03643
1.88529
1.87578
8.5063
-3.66132
3.42769
109.734
2.46937
109.579
-109.731
-3.71591
3.42622
-2.92639
0.914713
81.2265
-0.0685886
10.1742
397.193
-9.49084
-1.38632
-2.10146
-1.98368
-1.90215
384.499
10.0733
-1.02891
-1.3625
-1.66391
-0.58365
4.73675
-2.19868
-91.0154
2.32687
2.1718
2.12594
81.2673
-81.2228
-2.91772
0.812819
-0.0655567
10.1666
397.19
-9.4955
6.72219
-1.98759
-1.90355
-2.10883
-1.3903
10.0709
384.472
-1.6679
-0.586625
-1.36526
-1.03302
4.77585
361.147
-0.47293
-0.932596
-0.552145
-0.237339
2.33202
2.42974
2.34744
2.3001
0.211562
-0.5242
-2.39618
87.7076
-68.6622
1.72354
0.35
0.014693
361.116
-0.55849
-0.242908
-0.93767
-0.482385
2.91933
2.34694
2.29831
2.42801
2.33143
87.3554
1.0094
-87.6998
-0.658217
-2.37976
1.74697
94.1855
-0.222432
1.5776
0.0426441
-1.61306
76.9014
-0.00196303
0.300945
94.1838
-94.1807
1.74704
-0.221715
1.57754
0.0405213
76.8894
-76.8928
-1.61331
-0.00131583
1.54993
75.0579
0.00207439
1.48497
0.030512
-1.49366
72.3559
-0.0229619
0.0290002
75.0453
-75.0497
1.54978
0.00312729
1.48333
0.0344995
72.3524
-72.3548
-1.49367
-0.021769
1.47444
72.7243
-0.00794535
1.40225
0.00400829
-1.43056
69.4623
0.013245
0.0209132
72.7171
-72.7223
1.47486
-0.00730011
1.40259
0.0201638
69.4637
-69.4687
-1.43127
0.0135029
1.32111
66.461
0.00422763
0.0825612
66.4576
-66.4638
1.32103
0.00520411
-1.98579
0.0995673
95.6111
8.50556
457.291
0.0158254
-0.552839
-0.374609
0.0701601
433.907
8.37863
-0.0366148
-0.126482
-0.336967
-0.157203
0.755841
-110.495
2.07753
0.232721
1.93779
95.5768
-95.5892
-1.98553
0.100609
8.50555
457.287
0.738954
-0.381805
0.0626238
0.0085394
-0.559976
8.37913
433.91
-0.343431
-0.164234
-0.133425
-0.0432341
0.807472
-1.83835
0.0248576
89.5452
8.13755
410.915
-0.270919
-0.06382
0.0471558
-0.167679
396.925
7.93693
-0.246754
0.0823396
0.0919386
-0.225043
0.46999
-93.0282
1.89658
0.0871231
1.83201
89.4951
-89.5249
-1.838
0.0703509
8.1386
410.913
0.0411766
-0.174001
-0.0696235
-0.277703
0.722478
7.93777
396.916
0.0869845
-0.231301
0.0768769
-0.252831
0.529795
-1.74355
0.00772003
84.4053
7.70348
386.862
-0.322923
0.101473
0.178355
-0.222701
375.017
7.44464
-0.368841
0.347472
0.208577
-0.609892
0.668045
-89.8041
1.82171
0.0633224
1.68373
84.3351
-84.3969
-1.74406
0.142254
7.69354
386.85
0.172329
-0.2292
0.0955529
-0.329537
0.547305
7.44439
374.99
0.203875
-0.615448
0.342462
-0.374106
0.718521
-2.04151
0.440598
83.1992
0.00200935
7.48962
368.499
-0.564795
0.260537
-0.12898
-0.671182
384.733
7.83821
-0.524129
-0.904415
-0.363595
0.216403
1.22521
-80.8819
1.59973
0.226466
1.66152
83.2522
-83.1915
-2.03411
0.305297
0.00668448
7.48886
368.48
-0.13234
-0.675771
0.256601
-0.568831
1.09507
7.83725
384.721
-0.366242
0.214367
-0.905987
-0.527178
1.24791
-1.3735
0.0438768
69.2991
-0.00211889
7.56858
389.504
0.39011
-0.863646
-0.643386
0.365126
373.433
7.0545
0.352585
-0.157105
-0.548536
-0.0065225
0.884192
-75.4784
1.47902
0.109972
0.004807
1.34377
69.3075
-69.2955
-1.3728
0.0174195
-0.000345689
7.56918
389.483
-0.644947
0.362928
-0.865687
0.388443
1.04921
7.05028
373.413
-0.550789
-0.0072102
-0.1585
0.351346
0.903865
-0.961987
0.922027
33.6595
0.0272147
6.42292
352.536
-0.585197
-0.129899
0.141275
-0.173362
337.649
1.61706
-0.69707
-0.460432
0.0225322
-0.561396
1.53717
1.48546
1.51581
1.98127
-68.2952
1.28888
0.0786054
-0.0162331
33.6593
-33.6659
-0.959442
0.937956
0.0281099
6.42394
352.506
0.141002
-0.17579
-0.131473
-0.586277
1.4095
1.48585
337.608
0.0214211
-0.562403
-0.461191
-0.698411
1.61754
1.51514
1.53653
2.0099
-0.697331
1.48767
85.4167
1.44535
1.03932
-1.22642
-1.24661
87.4227
85.0676
1.16135
-85.4078
-0.793369
1.45799
1.43653
87.3344
1.05455
-87.3723
-1.22162
-1.23154
45.149
0.0655746
1.36928
45.1354
-45.1405
0.0723511
347.367
-6.05974
-3.73971
-1.46569
-1.01069
-1.64365
2.56566
1.53428
1.27503
1.13962
-1.28104
-86.0147
1.36615
1.32358
7.36272
347.381
-6.04704
-1.00512
-1.64152
-1.46499
-3.73207
1.27413
1.14069
1.53545
2.56394
-2.47614
2.39599
51.9141
0.098057
7.78326
385.619
364.935
2.0364
-1.92138
-2.1036
-2.57798
-2.03789
1.87541
2.02737
1.8848
8.6737
7.20671
1.67797
1.64408
1.68823
1.9371
51.9163
-51.9062
-2.48474
2.37352
0.10111
7.76795
386.342
5.97637
2.0277
365.003
-2.56892
-2.03398
-2.09978
-1.91197
2.03643
1.8848
1.8753
8.49059
-3.65126
3.4243
109.728
2.46365
109.573
-109.725
-3.70676
3.42307
-2.92349
0.909668
81.2219
-0.0678964
10.1694
397.184
-9.48847
-1.38188
-2.10089
-1.97899
-1.89879
384.472
10.0686
-1.02512
-1.35667
-1.65992
-0.578245
4.72074
-2.19873
-91.0137
2.32589
2.16745
2.12477
81.27
-81.2234
-2.91526
0.809423
-0.0655273
10.162
397.177
-9.49382
6.71525
-1.98341
-1.90369
-2.10251
-1.3864
10.0666
384.437
-1.66427
-0.579169
-1.36319
-1.0296
4.76666
361.085
-0.4694
-0.92625
-0.545516
-0.231583
2.33087
2.42875
2.34641
2.29905
0.211739
-0.520626
-2.39557
87.6882
-68.6713
1.72341
0.347171
0.014544
361.047
-0.555303
-0.235413
-0.935229
-0.479592
2.91084
2.34573
2.29716
2.42687
2.33019
87.337
1.00403
-87.6788
-0.655623
-2.379
1.7471
94.176
-0.221912
1.57748
0.0391341
-1.61329
76.8873
-0.00126079
0.300155
94.1752
-94.1718
1.74719
-0.221341
1.57751
0.037901
76.8846
-76.8849
-1.61362
-0.00141837
1.54966
75.0451
0.00346267
1.48543
0.0256296
-1.49367
72.356
-0.0209988
0.0252607
75.0434
-75.0443
1.54957
0.00355813
1.48372
0.0308853
72.3595
-72.3594
-1.49369
-0.0210443
1.47489
72.7226
-0.00672935
1.40304
0.000271997
-1.43137
69.4768
0.0149643
0.0182253
72.7228
-72.7256
1.47532
-0.00702727
1.4034
0.0178565
69.4834
-69.4867
-1.43207
0.0141851
1.32158
66.469
0.00683021
0.079105
66.4722
-66.4763
1.32165
0.00680246
-1.98509