/*--------------------------------*- C++ -*----------------------------------*\
  =========                 |
  \\      /  F ield         | OpenFOAM: The Open Source CFD Toolbox
   \\    /   O peration     | Website:  https://openfoam.org
    \\  /    A nd           | Version:  10
     \\/     M anipulation  |
\*---------------------------------------------------------------------------*/
FoamFile
{
    format      ascii;
    class       volVectorField;
    location    "2000";
    object      U;
}
// * * * * * * * * * * * * * * * * * * * * * * * * * * * * * * * * * * * * * //

dimensions      [0 1 -1 0 0 0 0];

internalField   nonuniform List<vector> 
8808
(
(0.367858 0.0296754 19.4315)
(0.353306 0.0489153 18.9562)
(0.335172 0.089645 18.3208)
(0.300788 0.134544 16.9365)
(0.383029 0.0347324 20.3217)
(0.37264 0.0546224 19.8087)
(0.365511 0.0924839 19.2487)
(0.358384 0.133205 18.3704)
(0.40375 0.167247 16.6236)
(0.361432 0.0484873 14.0924)
(0.396025 0.0378363 21.095)
(0.390208 0.0568111 20.5484)
(0.390383 0.0902197 20.0083)
(0.409781 0.122818 19.391)
(0.45197 0.121357 18.5089)
(0.453621 0.0649896 17.6394)
(0.460997 0.0138798 17.1822)
(0.474287 0.0947249 19.6229)
(0.484628 0.0570352 19.1283)
(0.323113 0.0023536 16.5614)
(0.316182 0.0103703 16.1096)
(0.291914 0.0121465 14.9437)
(0.272079 0.0166499 14.6579)
(0.378336 0.0140746 21.4193)
(0.385082 0.0163432 20.2059)
(0.369445 0.0111787 19.1729)
(0.357892 0.0144643 18.533)
(0.345344 0.0204437 18.03)
(0.327537 0.0342615 17.6078)
(0.293037 0.0662728 16.8996)
(0.202367 0.103886 14.2937)
(0.389358 0.0103505 22.076)
(0.395751 0.0176382 21.4655)
(0.388677 0.0179439 20.6258)
(0.378736 0.0206218 19.9447)
(0.367943 0.0294454 19.4312)
(0.353324 0.048864 18.9563)
(0.33514 0.0893665 18.3238)
(0.301064 0.134929 16.9443)
(0.394492 0.00818438 22.5063)
(0.400563 0.0163796 22.1956)
(0.399063 0.020312 21.5752)
(0.391825 0.0247392 20.8967)
(0.383118 0.0344626 20.3214)
(0.37271 0.0543895 19.8084)
(0.365591 0.0922594 19.2484)
(0.35864 0.13305 18.3719)
(0.403407 0.166734 16.6243)
(0.361041 0.0473534 14.0875)
(0.399478 0.00646383 22.8312)
(0.40422 0.0154475 22.711)
(0.405571 0.0213996 22.2768)
(0.402002 0.0272998 21.6929)
(0.396113 0.0375586 21.0947)
(0.390284 0.0565513 20.5481)
(0.390512 0.089873 20.0078)
(0.409759 0.122513 19.3905)
(0.451781 0.121082 18.5091)
(0.453343 0.0649156 17.6417)
(0.460821 0.0134734 17.1825)
(0.474173 0.0944525 19.6225)
(0.484496 0.0569411 19.1284)
(0.365706 0.0244961 20.2467)
(0.347205 0.0102688 17.417)
(0.323167 0.00189235 16.5579)
(0.316271 0.00960402 16.108)
(0.29189 0.011383 14.9384)
(0.27269 0.0162381 14.6525)
(0.378315 0.0140433 21.4191)
(0.385208 0.0163437 20.2065)
(0.36957 0.0112191 19.1741)
(0.35812 0.0145146 18.534)
(0.34546 0.0204718 18.0311)
(0.327618 0.0342297 17.6088)
(0.293353 0.065744 16.9008)
(0.202017 0.10191 14.2902)
(0.389375 0.0102992 22.0759)
(0.3958 0.0175688 21.4654)
(0.38875 0.0178095 20.6253)
(0.378818 0.0204994 19.9444)
(0.367994 0.0293268 19.4308)
(0.353348 0.0488612 18.9565)
(0.335071 0.0892749 18.3263)
(0.301267 0.135237 16.9509)
(0.394503 0.0080978 22.5062)
(0.400605 0.0162883 22.1955)
(0.399137 0.0202199 21.5751)
(0.391901 0.0246029 20.8964)
(0.383176 0.0343096 20.321)
(0.372772 0.0542527 19.808)
(0.365583 0.092183 19.2482)
(0.358788 0.133092 18.3737)
(0.403192 0.1663 16.6245)
(0.360797 0.0467948 14.0861)
(0.399497 0.00638475 22.831)
(0.40426 0.0153754 22.7109)
(0.40563 0.0212944 22.2766)
(0.402063 0.0271709 21.6927)
(0.396169 0.0374162 21.0944)
(0.390336 0.056414 20.5478)
(0.390584 0.0896474 20.0074)
(0.40972 0.122365 19.3903)
(0.451545 0.120952 18.5095)
(0.453164 0.0648532 17.6432)
(0.474046 0.0942976 19.6221)
(0.484345 0.0569069 19.1285)
(0.365696 0.0244435 20.2466)
(0.347158 0.00989425 17.4116)
(0.323116 0.00148172 16.5526)
(0.31632 0.00906456 16.1058)
(0.291876 0.0108796 14.9347)
(0.273195 0.0159719 14.6496)
(0.378287 0.0140289 21.4189)
(0.385307 0.0163806 20.2073)
(0.369672 0.0112907 19.1754)
(0.358295 0.0145165 18.5347)
(0.345546 0.020457 18.032)
(0.32764 0.0341676 17.6093)
(0.293569 0.0653697 16.9014)
(0.202029 0.0999842 14.2846)
(0.389386 0.0102646 22.0759)
(0.395825 0.0175286 21.4653)
(0.388796 0.0177367 20.6251)
(0.378878 0.0204286 19.9441)
(0.368034 0.0292401 19.4306)
(0.353358 0.0488667 18.9569)
(0.334997 0.0892055 18.3291)
(0.301442 0.135468 16.9562)
(0.394506 0.00805751 22.506)
(0.400641 0.0162366 22.1954)
(0.399197 0.0201721 21.575)
(0.39195 0.02453 20.8962)
(0.383203 0.0342154 20.3208)
(0.372806 0.0541822 19.8077)
(0.365558 0.0921191 19.2483)
(0.358899 0.13316 18.3755)
(0.403062 0.165901 16.6244)
(0.360632 0.0465421 14.0868)
(0.399509 0.00635308 22.8308)
(0.404288 0.0153443 22.7107)
(0.405666 0.021246 22.2765)
(0.402103 0.0271043 21.6924)
(0.3962 0.0373284 21.0941)
(0.390363 0.0563409 20.5475)
(0.390603 0.0895462 20.0071)
(0.409709 0.122301 19.3903)
(0.451333 0.120852 18.5099)
(0.452987 0.064778 17.644)
(0.473942 0.0942135 19.6219)
(0.484208 0.056915 19.1288)
(0.365675 0.0243911 20.2462)
(0.347044 0.00953485 17.405)
(0.323025 0.0011716 16.5465)
(0.316356 0.00866883 16.1035)
(0.291886 0.0105833 14.9327)
(0.273588 0.0158097 14.6488)
(0.378256 0.0140338 21.4189)
(0.385382 0.0164526 20.2083)
(0.369762 0.0113796 19.1766)
(0.358424 0.0145186 18.5352)
(0.345612 0.0204184 18.0327)
(0.327652 0.0340942 17.6095)
(0.293774 0.0649279 16.901)
(0.202356 0.0984801 14.2789)
(0.389386 0.0102673 22.0759)
(0.39584 0.0175249 21.4652)
(0.388835 0.0177127 20.6247)
(0.378926 0.0204092 19.9439)
(0.368042 0.0292453 19.4306)
(0.353361 0.0489088 18.9573)
(0.334932 0.0891984 18.3313)
(0.301675 0.135427 16.9599)
(0.394504 0.00805296 22.5059)
(0.400651 0.0162358 22.1954)
(0.399226 0.0201676 21.575)
(0.391986 0.024497 20.8961)
(0.383213 0.0341643 20.3206)
(0.372843 0.0541574 19.8076)
(0.365523 0.0920943 19.2483)
(0.358986 0.133251 18.3772)
(0.402993 0.165562 16.624)
(0.360521 0.0464599 14.0892)
(0.399514 0.00635156 22.8307)
(0.404303 0.0153447 22.7107)
(0.4057 0.0212267 22.2764)
(0.402133 0.0270732 21.6923)
(0.396214 0.0372876 21.0939)
(0.390379 0.0563158 20.5473)
(0.390609 0.0894653 20.0068)
(0.409695 0.122286 19.3903)
(0.451161 0.120785 18.5102)
(0.452848 0.0647087 17.6443)
(0.473843 0.0941845 19.6218)
(0.484096 0.0569609 19.1292)
(0.365653 0.0243432 20.2455)
(0.346898 0.00924515 17.3982)
(0.322913 0.00094597 16.5404)
(0.316383 0.00840094 16.1013)
(0.291904 0.0104373 14.9321)
(0.273912 0.015742 14.6496)
(0.378229 0.0140574 21.4188)
(0.385442 0.0165308 20.2093)
(0.369816 0.0114865 19.1777)
(0.358511 0.0145492 18.5354)
(0.345656 0.0203868 18.033)
(0.327648 0.0340065 17.6092)
(0.293992 0.0644423 16.8994)
(0.202829 0.0973605 14.2743)
(0.389382 0.0102924 22.0759)
(0.395843 0.0175456 21.4651)
(0.388856 0.0177273 20.6246)
(0.378961 0.0204298 19.9438)
(0.368039 0.0292791 19.4306)
(0.35335 0.0489791 18.9578)
(0.334831 0.0892396 18.3337)
(0.30189 0.135374 16.962)
(0.394498 0.00807562 22.5058)
(0.400657 0.0162596 22.1954)
(0.399251 0.0201933 21.575)
(0.392004 0.0245029 20.896)
(0.383209 0.0341592 20.3205)
(0.372855 0.054176 19.8075)
(0.365454 0.0921292 19.2489)
(0.359024 0.133377 18.3786)
(0.402975 0.16528 16.6234)
(0.399516 0.00637058 22.8306)
(0.404308 0.0153646 22.7107)
(0.405708 0.0212403 22.2764)
(0.402149 0.0270814 21.6922)
(0.396215 0.0372862 21.0938)
(0.390382 0.0563326 20.5472)
(0.390599 0.0894391 20.0067)
(0.409716 0.122317 19.3907)
(0.451022 0.120758 18.5105)
(0.473763 0.0942107 19.6218)
(0.365631 0.0243 20.2446)
(0.346748 0.00903118 17.3916)
(0.322803 0.000811522 16.5348)
(0.316402 0.00824116 16.0996)
(0.29194 0.0103835 14.9326)
(0.274194 0.0157384 14.6517)
(0.385482 0.0166214 20.2103)
(0.369844 0.0115946 19.1784)
(0.35856 0.0145756 18.5353)
(0.345683 0.0203491 18.0329)
(0.327624 0.0339191 17.6086)
(0.294138 0.0640172 16.8966)
(0.203339 0.096553 14.2714)
(0.388872 0.0177753 20.6244)
(0.37899 0.0204808 19.9437)
(0.36803 0.0293165 19.4305)
(0.353328 0.049049 18.9582)
(0.334728 0.0893087 18.3354)
(0.302043 0.135351 16.9623)
(0.399265 0.0202405 21.5751)
(0.39202 0.0245393 20.8959)
(0.383194 0.0341838 20.3204)
(0.372862 0.0542239 19.8076)
(0.365397 0.0921654 19.249)
(0.359051 0.133552 18.3797)
(0.31642 0.00816456 16.0983)
(0.291988 0.0103895 14.934)
(0.274437 0.0157728 14.6546)
(0.3586 0.0145998 18.5349)
(0.345693 0.0203105 18.0324)
(0.327587 0.0338276 17.6075)
(0.29424 0.0636234 16.8928)
(0.203858 0.0960284 14.2704)
(0.379007 0.0205421 19.9437)
(0.368013 0.0293815 19.4306)
(0.353291 0.0491283 18.9586)
(0.334592 0.0893931 18.3372)
(0.302107 0.135321 16.961)
(0.392024 0.0245802 20.8959)
(0.383179 0.0342157 20.3205)
(0.372862 0.054289 19.8077)
(0.365309 0.0922695 19.25)
(0.359069 0.133739 18.3805)
(0.292054 0.0104313 14.9362)
(0.274652 0.0158278 14.6583)
(0.345696 0.0202675 18.0316)
(0.327542 0.033732 17.6061)
(0.294308 0.0632348 16.8883)
(0.204406 0.095755 14.2714)
(0.368002 0.0294358 19.4306)
(0.353258 0.0492028 18.9588)
(0.334483 0.0894711 18.338)
(0.302158 0.135258 16.9585)
(0.383162 0.0342696 20.3205)
(0.372852 0.0543718 19.8078)
(0.365241 0.092338 19.25)
(0.359091 0.133927 18.3809)
(0.274855 0.0158925 14.6624)
(0.327498 0.0336258 17.6044)
(0.294345 0.0628484 16.8833)
(0.20485 0.0956995 14.2742)
(0.353205 0.0492552 18.9592)
(0.3343 0.0895545 18.339)
(0.30218 0.135175 16.955)
(0.36516 0.0924639 19.2513)
(0.359101 0.134104 18.381)
(0.294365 0.0624904 16.878)
(0.205243 0.0957788 14.2785)
(0.334134 0.0896747 18.3387)
(0.302162 0.135085 16.9506)
(0.365062 0.0925151 19.2512)
(0.359121 0.134282 18.3806)
(0.403277 0.164574 16.6187)
(0.294406 0.0619234 16.8726)
(0.205618 0.0959225 14.2842)
(0.334324 0.08913 18.3399)
(0.302165 0.134875 16.9456)
(0.365195 0.0924757 19.2533)
(0.359168 0.134236 18.3799)
(0.403309 0.164461 16.6176)
(0.294414 0.0615683 16.8679)
(0.206041 0.0961838 14.2917)
(0.302208 0.134512 16.94)
(0.359432 0.133958 18.3793)
(0.403177 0.164283 16.617)
(0.361679 0.0488032 14.095)
(0.429777 0.0615131 16.6031)
(0.430676 0.0536496 16.3738)
(0.291904 0.0121647 14.9461)
(0.279772 0.0140163 14.74)
(0.329482 0.0180263 17.1302)
(0.321401 0.0206644 16.9444)
(0.271997 0.016788 14.6595)
(0.237663 0.0278882 13.7913)
(0.309699 0.0287696 16.742)
(0.289047 0.0340441 16.3842)
(0.282815 0.0599489 16.2485)
(0.20756 0.0727311 14.3375)
(0.182016 0.086936 13.199)
(0.20254 0.104575 14.2933)
(0.257533 0.131342 15.7935)
(0.283751 0.1657 13.9039)
(0.333344 0.135735 17.74)
(0.342067 0.16979 16.7689)
(0.300937 0.134588 16.9414)
(0.284205 0.164214 13.892)
(0.333578 0.135566 17.7436)
(0.342402 0.169268 16.7716)
(0.382522 0.186386 15.7064)
(0.382508 0.185815 15.7059)
(0.384926 0.0618324 14.3806)
(0.445825 0.131474 17.7697)
(0.448004 0.0911658 17.0851)
(0.403412 0.166765 16.6231)
(0.384518 0.0609325 14.3765)
(0.445653 0.131289 17.77)
(0.447907 0.090923 17.086)
(0.429801 0.0611046 16.6045)
(0.430758 0.0535169 16.3754)
(0.361252 0.0474669 14.0891)
(0.429783 0.0607107 16.6049)
(0.430617 0.0532222 16.3732)
(0.443952 0.0256533 16.2952)
(0.443842 0.0250048 16.2924)
(0.354632 0.0267077 19.3975)
(0.328921 0.00923797 16.4195)
(0.324001 0.00792279 16.0928)
(0.308436 -0.00221167 15.4784)
(0.297843 -0.000177501 15.3433)
(0.29781 0.00768974 15.0965)
(0.298003 -0.000688003 15.3393)
(0.298069 0.00735977 15.0953)
(0.295445 0.00884502 15.0144)
(0.295437 0.00838501 15.0111)
(0.3657 0.0244838 20.2467)
(0.352341 0.0125363 17.7783)
(0.374943 0.0165036 20.9523)
(0.379956 0.0184497 20.0485)
(0.347223 0.0103851 17.418)
(0.331474 0.00125713 16.7023)
(0.373932 0.0143849 19.2076)
(0.365291 0.00865416 18.6259)
(0.319027 0.00864277 16.2305)
(0.354529 0.00834216 18.2659)
(0.349367 0.0106025 17.9634)
(0.323177 0.00205711 16.5588)
(0.319199 0.0083801 16.2283)
(0.354608 0.00837128 18.267)
(0.349421 0.0105512 17.9642)
(0.295046 0.0121883 15.1221)
(0.344403 0.0133028 17.6975)
(0.337557 0.0143738 17.3727)
(0.316221 0.00988158 16.1078)
(0.294945 0.0113046 15.1186)
(0.344583 0.0130717 17.6984)
(0.337592 0.014138 17.3736)
(0.279634 0.0138289 14.7379)
(0.329578 0.0178047 17.1314)
(0.321484 0.0203917 16.9455)
(0.2919 0.0113481 14.9405)
(0.279633 0.0133599 14.7334)
(0.329651 0.0175865 17.132)
(0.321566 0.0201547 16.946)
(0.237556 0.0276305 13.7878)
(0.309842 0.0284343 16.7428)
(0.289086 0.0338384 16.3851)
(0.272641 0.0163182 14.6535)
(0.237018 0.0272916 13.7796)
(0.30996 0.0281993 16.743)
(0.289085 0.0337352 16.3852)
(0.282964 0.0596685 16.2497)
(0.207748 0.0722247 14.3367)
(0.283222 0.0590176 16.2484)
(0.208227 0.0709218 14.3303)
(0.182043 0.0861312 13.1915)
(0.182341 0.0847665 13.1713)
(0.257895 0.131154 15.8018)
(0.202105 0.102539 14.2904)
(0.258255 0.130701 15.8083)
(0.283591 0.163518 13.8882)
(0.333638 0.13572 17.7437)
(0.342447 0.169057 16.7729)
(0.30117 0.134947 16.9486)
(0.283912 0.162414 13.8799)
(0.333825 0.135612 17.7474)
(0.342754 0.168621 16.7749)
(0.382566 0.185571 15.7068)
(0.382475 0.185106 15.7056)
(0.384345 0.0609153 14.3745)
(0.445434 0.13111 17.7707)
(0.44779 0.0907271 17.087)
(0.40318 0.166322 16.6235)
(0.384055 0.0603079 14.3724)
(0.44528 0.131002 17.7709)
(0.4477 0.0905568 17.0872)
(0.429758 0.0605704 16.6051)
(0.430704 0.0531772 16.3745)
(0.360948 0.0467188 14.0867)
(0.429689 0.0603446 16.6042)
(0.430549 0.0529362 16.3714)
(0.443892 0.0249022 16.2933)
(0.443757 0.0245004 16.2899)
(0.354637 0.0267122 19.3969)
(0.328909 0.00908461 16.4176)
(0.35465 0.0266065 19.3953)
(0.328931 0.00874959 16.413)
(0.323971 0.00773808 16.0909)
(0.308462 -0.00243638 15.4775)
(0.323919 0.00734661 16.0859)
(0.308533 -0.00284563 15.4754)
(0.298032 -0.000876742 15.3384)
(0.29817 0.00705646 15.0953)
(0.298145 -0.00119066 15.3358)
(0.298345 0.00695123 15.0958)
(0.295463 0.00810786 15.0106)
(0.295466 0.00786219 15.0096)
(0.3523 0.0124691 17.7769)
(0.374915 0.0164894 20.9527)
(0.379985 0.0184911 20.0499)
(0.365694 0.0244319 20.2468)
(0.352263 0.0122944 17.772)
(0.374905 0.0164784 20.9526)
(0.380004 0.0185343 20.0508)
(0.331463 0.00104276 16.7011)
(0.374022 0.0144151 19.209)
(0.365333 0.00861259 18.6273)
(0.347201 0.010006 17.4131)
(0.331403 0.000694276 16.6958)
(0.374105 0.0144654 19.2102)
(0.365371 0.00863238 18.6283)
(0.319212 0.0081229 16.2284)
(0.354676 0.00835036 18.268)
(0.349484 0.0104605 17.9648)
(0.323145 0.0016341 16.5538)
(0.319319 0.00798138 16.2256)
(0.354757 0.00838467 18.2685)
(0.34954 0.0104082 17.9649)
(0.29506 0.0113513 15.1166)
(0.344691 0.0129207 17.699)
(0.337635 0.013948 17.3744)
(0.316268 0.00930752 16.1057)
(0.294942 0.0106382 15.1141)
(0.344755 0.0128188 17.6991)
(0.337641 0.0137662 17.3747)
(0.279524 0.0132273 14.7319)
(0.329701 0.0174421 17.1323)
(0.321634 0.0199466 16.9462)
(0.291877 0.0107596 14.9364)
(0.279586 0.0128982 14.7294)
(0.329739 0.0172943 17.1321)
(0.321687 0.0197496 16.946)
(0.237018 0.0271023 13.7787)
(0.310028 0.0280462 16.7432)
(0.289108 0.0336267 16.3853)
(0.273186 0.0160241 14.65)
(0.236803 0.0269195 13.7779)
(0.310114 0.0278012 16.7425)
(0.289145 0.0334347 16.3841)
(0.283306 0.0588039 16.2493)
(0.208374 0.0704696 14.3277)
(0.283535 0.058251 16.2469)
(0.208639 0.0692898 14.3166)
(0.182457 0.0840971 13.1665)
(0.182904 0.083111 13.1548)
(0.258617 0.130388 15.8134)
(0.202056 0.10057 14.285)
(0.259041 0.129778 15.8169)
(0.283203 0.161835 13.8772)
(0.333856 0.135751 17.7474)
(0.342757 0.168466 16.7755)
(0.301357 0.135233 16.9545)
(0.283424 0.161062 13.872)
(0.333984 0.135608 17.7507)
(0.343031 0.168025 16.7766)
(0.382506 0.184887 15.7063)
(0.382383 0.184504 15.7047)
(0.383914 0.0603722 14.3711)
(0.445094 0.130889 17.7711)
(0.4476 0.0904312 17.0871)
(0.403033 0.165913 16.6234)
(0.383651 0.0599326 14.3707)
(0.444977 0.130799 17.7711)
(0.447515 0.0902934 17.0866)
(0.429627 0.0602124 16.6037)
(0.430639 0.0529017 16.3725)
(0.360752 0.0463887 14.087)
(0.429502 0.0600368 16.602)
(0.430496 0.0526714 16.3685)
(0.354656 0.0266162 19.3948)
(0.328921 0.00865499 16.4117)
(0.354669 0.0265259 19.3933)
(0.328945 0.00845874 16.409)
(0.323887 0.00722279 16.0847)
(0.308547 -0.00300223 15.4751)
(0.323842 0.00696403 16.082)
(0.308593 -0.00320813 15.4747)
(0.298165 -0.00132463 15.3354)
(0.298405 0.00670986 15.0963)
(0.298273 -0.00149473 15.3346)
(0.298578 0.00665992 15.0982)
(0.295513 0.00757639 15.0098)
(0.295553 0.00749393 15.0106)
(0.352206 0.0122187 17.7701)
(0.374877 0.0164776 20.953)
(0.380004 0.0185838 20.0519)
(0.365678 0.0243796 20.2465)
(0.35212 0.0120338 17.764)
(0.374867 0.0164725 20.953)
(0.380006 0.0186303 20.0525)
(0.331381 0.000507313 16.6942)
(0.374164 0.0144909 19.2112)
(0.365392 0.00859371 18.6291)
(0.347099 0.00963831 17.4067)
(0.331296 0.0002549 16.6883)
(0.37422 0.0145404 19.2118)
(0.36543 0.00860841 18.6295)
(0.319321 0.00773209 16.2256)
(0.354787 0.00835953 18.2688)
(0.349587 0.0103244 17.9652)
(0.323057 0.00129974 16.5478)
(0.319378 0.00766247 16.2225)
(0.354817 0.00839653 18.2686)
(0.349618 0.0102888 17.9645)
(0.295068 0.0107465 15.1124)
(0.344824 0.0127363 17.6993)
(0.33767 0.01365 17.3748)
(0.316308 0.00888846 16.1034)
(0.294965 0.0101978 15.1111)
(0.344877 0.0126538 17.6985)
(0.337672 0.0135205 17.3746)
(0.279488 0.0128098 14.7285)
(0.329773 0.0172062 17.1317)
(0.321722 0.0196112 16.9456)
(0.291877 0.0104023 14.9338)
(0.279578 0.0126061 14.7277)
(0.329797 0.0170873 17.131)
(0.321749 0.0194648 16.9449)
(0.236875 0.0267672 13.7786)
(0.310161 0.0276601 16.7422)
(0.289177 0.0332962 16.3836)
(0.273623 0.0158308 14.6487)
(0.236867 0.0267123 13.7824)
(0.310214 0.0274749 16.741)
(0.289202 0.0331622 16.3817)
(0.28357 0.0581393 16.2475)
(0.208719 0.0688975 14.3131)
(0.283779 0.0575728 16.2437)
(0.208896 0.0678806 14.3003)
(0.183015 0.0825956 13.1528)
(0.183519 0.0820555 13.1488)
(0.259285 0.129527 15.8189)
(0.202368 0.0989746 14.2792)
(0.259476 0.12913 15.8199)
(0.282701 0.160547 13.8702)
(0.333989 0.135745 17.7505)
(0.343003 0.167909 16.7766)
(0.301565 0.135296 16.9589)
(0.282879 0.160062 13.8674)
(0.3341 0.135624 17.7533)
(0.343218 0.167507 16.7768)
(0.382425 0.184315 15.7054)
(0.382273 0.184019 15.7038)
(0.383575 0.0600959 14.3701)
(0.444843 0.130721 17.771)
(0.447418 0.0901846 17.0861)
(0.402955 0.165558 16.6231)
(0.383376 0.0597757 14.371)
(0.444758 0.130648 17.7707)
(0.447338 0.0900633 17.0852)
(0.429416 0.0599253 16.601)
(0.430583 0.0526614 16.3696)
(0.360631 0.0462793 14.0891)
(0.429275 0.0597929 16.5989)
(0.430411 0.0524713 16.3651)
(0.354675 0.0265402 19.3928)
(0.328938 0.00840558 16.4084)
(0.354688 0.0264632 19.3915)
(0.32898 0.00830643 16.4076)
(0.323816 0.00688284 16.0815)
(0.308604 -0.00332372 15.4748)
(0.323792 0.0067457 16.0812)
(0.308639 -0.00340511 15.476)
(0.298289 -0.00158386 15.3347)
(0.298631 0.00646327 15.0992)
(0.298384 -0.00164031 15.3356)
(0.298791 0.00652266 15.1023)
(0.295601 0.00728383 15.0113)
(0.295678 0.00727149 15.0137)
(0.352053 0.0119626 17.7619)
(0.374842 0.0164844 20.9535)
(0.37998 0.0186778 20.0534)
(0.365656 0.0243301 20.2459)
(0.351953 0.0118011 17.7555)
(0.374833 0.0164858 20.9534)
(0.379976 0.0187237 20.0536)
(0.331271 9.87951e-05 16.6867)
(0.374251 0.014566 19.2122)
(0.365436 0.00856859 18.6299)
(0.346957 0.00932505 17.3998)
(0.331168 -6.16819e-05 16.6809)
(0.374287 0.0146185 19.2121)
(0.365435 0.00858494 18.6295)
(0.319375 0.00743482 16.2224)
(0.35484 0.0083695 18.2688)
(0.349658 0.0102357 17.9646)
(0.322949 0.0010454 16.5416)
(0.319408 0.0074528 16.2193)
(0.354835 0.00839753 18.2678)
(0.34967 0.0102074 17.9632)
(0.295087 0.0103665 15.1099)
(0.344926 0.0125925 17.6985)
(0.337688 0.0134376 17.3742)
(0.316338 0.00860099 16.1012)
(0.294982 0.00991049 15.1094)
(0.34496 0.0125234 17.6972)
(0.337689 0.0133326 17.3736)
(0.27949 0.0125598 14.7275)
(0.329814 0.0170178 17.1302)
(0.321757 0.0193902 16.9441)
(0.291899 0.0102015 14.9328)
(0.279616 0.0124528 14.7278)
(0.32982 0.0169203 17.1292)
(0.321771 0.0192703 16.9431)
(0.236993 0.0266123 13.7843)
(0.310245 0.0273621 16.7402)
(0.289222 0.0330575 16.3805)
(0.273924 0.0157543 14.6492)
(0.237083 0.0266789 13.7909)
(0.310274 0.0272207 16.7386)
(0.28921 0.0329484 16.3782)
(0.283804 0.0574844 16.2441)
(0.208951 0.0675713 14.2967)
(0.283957 0.0569966 16.2391)
(0.209041 0.0668465 14.2846)
(0.183628 0.0816621 13.1488)
(0.184042 0.0814586 13.1506)
(0.259628 0.128927 15.8204)
(0.202836 0.0977556 14.2743)
(0.259746 0.128569 15.8197)
(0.282133 0.159617 13.8663)
(0.334096 0.135782 17.753)
(0.343168 0.167401 16.7764)
(0.301802 0.135222 16.9616)
(0.282384 0.159367 13.8654)
(0.334189 0.135711 17.7554)
(0.343301 0.167143 16.776)
(0.382294 0.183854 15.7045)
(0.382159 0.183627 15.703)
(0.383342 0.0599788 14.3707)
(0.44465 0.130594 17.7704)
(0.447245 0.0899697 17.0844)
(0.402925 0.165255 16.6226)
(0.383185 0.0597307 14.3727)
(0.444596 0.130544 17.77)
(0.447174 0.0898676 17.0833)
(0.42919 0.0596949 16.5978)
(0.430491 0.0524859 16.3661)
(0.360586 0.0462851 14.0925)
(0.429055 0.0595801 16.5955)
(0.430311 0.0523463 16.3615)
(0.354693 0.0264812 19.3911)
(0.328973 0.00829238 16.4077)
(0.354704 0.0264154 19.3899)
(0.32902 0.00826224 16.4086)
(0.32377 0.00669477 16.0815)
(0.308654 -0.00348029 15.4766)
(0.323752 0.00663736 16.0831)
(0.308716 -0.00346705 15.479)
(0.298407 -0.00170928 15.3361)
(0.298835 0.00636027 15.1037)
(0.298508 -0.00168544 15.3383)
(0.298976 0.00649138 15.1076)
(0.295732 0.00709502 15.0148)
(0.295819 0.00716455 15.0183)
(0.351884 0.0117405 17.7534)
(0.374811 0.0165038 20.9538)
(0.379935 0.0187598 20.0541)
(0.365633 0.0242853 20.2451)
(0.351784 0.0116184 17.7473)
(0.374802 0.0165091 20.9538)
(0.379913 0.0187988 20.0541)
(0.331142 -0.000181855 16.6794)
(0.374292 0.01462 19.2123)
(0.365436 0.00854144 18.6295)
(0.346806 0.00909331 17.3931)
(0.331043 -0.000262702 16.6741)
(0.374305 0.0146514 19.2115)
(0.365419 0.0085411 18.6285)
(0.3194 0.00724619 16.2193)
(0.354841 0.00836653 18.2676)
(0.349691 0.0101599 17.963)
(0.322837 0.000891968 16.5358)
(0.319417 0.00733873 16.2166)
(0.354814 0.00838132 18.2661)
(0.349688 0.0101333 17.9612)
(0.295102 0.0101459 15.1088)
(0.344992 0.0124636 17.6967)
(0.337696 0.0132645 17.3729)
(0.316357 0.00842632 16.0994)
(0.295 0.00977064 15.1092)
(0.345006 0.0124109 17.695)
(0.337689 0.0131733 17.3721)
(0.279528 0.0124516 14.7279)
(0.32982 0.0168597 17.128)
(0.321779 0.0191722 16.9421)
(0.291931 0.0101263 14.9331)
(0.279682 0.0123933 14.7293)
(0.329814 0.0167706 17.1268)
(0.321781 0.0190649 16.9409)
(0.237228 0.0266168 13.7937)
(0.310295 0.0271233 16.7376)
(0.289204 0.0328677 16.3767)
(0.274218 0.0157368 14.651)
(0.23734 0.0267524 13.802)
(0.310307 0.0270022 16.7358)
(0.289173 0.0327768 16.3743)
(0.283968 0.0569239 16.2393)
(0.20908 0.0666413 14.2815)
(0.284085 0.0564877 16.2331)
(0.209138 0.0661797 14.2715)
(0.184158 0.08114 13.1521)
(0.184587 0.0811434 13.1582)
(0.259849 0.12838 15.8189)
(0.20337 0.0969 14.2711)
(0.259925 0.128038 15.8171)
(0.281669 0.158995 13.865)
(0.334178 0.135888 17.755)
(0.343258 0.166993 16.7752)
(0.301973 0.135204 16.9625)
(0.281976 0.158875 13.8654)
(0.334265 0.135856 17.7569)
(0.343386 0.166765 16.7742)
(0.382183 0.183488 15.7038)
(0.382077 0.183337 15.7024)
(0.383166 0.0599504 14.3726)
(0.444519 0.130508 17.7695)
(0.447097 0.0897899 17.0823)
(0.402949 0.165025 16.6218)
(0.383088 0.0597537 14.3754)
(0.444497 0.130476 17.769)
(0.447042 0.089702 17.0811)
(0.354709 0.0264365 19.3895)
(0.329019 0.00825864 16.4092)
(0.323734 0.00660976 16.084)
(0.308737 -0.00351973 15.48)
(0.298533 -0.00173261 15.3392)
(0.299015 0.00634754 15.1092)
(0.298636 -0.00165651 15.3423)
(0.299142 0.00652368 15.1137)
(0.295877 0.00701175 15.0197)
(0.295971 0.00714019 15.024)
(0.351717 0.011571 17.7453)
(0.331017 -0.000362041 16.6729)
(0.374301 0.0146439 19.2112)
(0.365407 0.00848615 18.6281)
(0.319408 0.00714357 16.2167)
(0.354806 0.0083448 18.2655)
(0.349699 0.0100842 17.9606)
(0.322735 0.000813987 16.5308)
(0.319418 0.00729301 16.2146)
(0.354767 0.00834948 18.2635)
(0.349682 0.0100671 17.9584)
(0.295123 0.0100309 15.1088)
(0.345026 0.0123563 17.6941)
(0.337687 0.0131368 17.3712)
(0.316373 0.00833793 16.098)
(0.295028 0.00971381 15.1101)
(0.345019 0.0123121 17.6921)
(0.337674 0.0130543 17.3702)
(0.279602 0.0124065 14.7296)
(0.329804 0.0167212 17.1255)
(0.321776 0.0189851 16.9397)
(0.291979 0.0101225 14.9343)
(0.279773 0.0123924 14.7317)
(0.32979 0.0166399 17.1241)
(0.321769 0.0188898 16.9383)
(0.237485 0.0267033 13.8052)
(0.310316 0.0269166 16.7347)
(0.289152 0.0327025 16.3726)
(0.274469 0.0157633 14.6538)
(0.237608 0.0268759 13.8145)
(0.310318 0.0268095 16.7329)
(0.289116 0.03262 16.3702)
(0.28409 0.0564305 16.2332)
(0.209172 0.0660542 14.2694)
(0.284199 0.0560501 16.2267)
(0.209247 0.06581 14.2622)
(0.184688 0.0809027 13.1609)
(0.185097 0.0810903 13.17)
(0.259998 0.12788 15.8153)
(0.203835 0.096365 14.2698)
(0.260045 0.127585 15.8129)
(0.281343 0.1586 13.8656)
(0.33425 0.13603 17.7563)
(0.343334 0.166646 16.773)
(0.302086 0.135175 16.9618)
(0.281656 0.158564 13.8671)
(0.334331 0.135992 17.7577)
(0.343448 0.166442 16.7717)
(0.382108 0.183218 15.7032)
(0.38202 0.183117 15.702)
(0.296028 0.00700437 15.0257)
(0.295153 0.00999065 15.1098)
(0.345028 0.0122607 17.691)
(0.337671 0.0130057 17.3691)
(0.29508 0.00970756 15.1118)
(0.337654 0.0129254 17.368)
(0.279699 0.0124153 14.7323)
(0.329776 0.0165961 17.1227)
(0.321757 0.0188199 16.9371)
(0.292044 0.0101579 14.9364)
(0.279882 0.0124273 14.7349)
(0.329761 0.0165179 17.1213)
(0.321746 0.0187337 16.9357)
(0.237755 0.0268297 13.8179)
(0.31032 0.0267327 16.7316)
(0.289095 0.032554 16.3684)
(0.27469 0.015814 14.6573)
(0.237885 0.0270173 13.8278)
(0.310315 0.0266373 16.7299)
(0.289063 0.0324798 16.3662)
(0.2842 0.0560109 16.2268)
(0.209285 0.0657576 14.261)
(0.284307 0.0556857 16.2205)
(0.209397 0.0656916 14.2568)
(0.185194 0.0808978 13.1736)
(0.185591 0.0812332 13.1848)
(0.260088 0.127486 15.8104)
(0.204332 0.0960502 14.2702)
(0.260108 0.127242 15.8078)
(0.281036 0.158321 13.8676)
(0.334305 0.136156 17.7568)
(0.343375 0.166346 16.7701)
(0.302132 0.135133 16.9599)
(0.28141 0.158391 13.8701)
(0.334376 0.136096 17.7576)
(0.343474 0.166167 16.7685)
(0.382052 0.18301 15.7029)
(0.381973 0.182946 15.7018)
(0.279811 0.0124561 14.7357)
(0.329746 0.0164816 17.1199)
(0.321731 0.0186746 16.9344)
(0.280005 0.0124787 14.7387)
(0.321719 0.0185996 16.9331)
(0.238034 0.0269766 13.8313)
(0.310313 0.0265698 16.7287)
(0.28904 0.0324202 16.3645)
(0.274896 0.0158768 14.6613)
(0.238165 0.0271672 13.8413)
(0.310307 0.0264853 16.7271)
(0.289013 0.0323557 16.3625)
(0.284306 0.055656 16.2206)
(0.209436 0.0656785 14.2565)
(0.284408 0.0553654 16.2147)
(0.209592 0.0657316 14.2553)
(0.185687 0.0810794 13.1889)
(0.186073 0.0815125 13.2015)
(0.260133 0.127178 15.805)
(0.204791 0.0959259 14.2724)
(0.260145 0.12696 15.8024)
(0.280806 0.158169 13.8709)
(0.334353 0.136268 17.7565)
(0.34339 0.166086 16.7667)
(0.302174 0.13505 16.9569)
(0.281238 0.158308 13.8742)
(0.334402 0.136186 17.7567)
(0.343487 0.165928 16.7649)
(0.382009 0.182851 15.7028)
(0.381941 0.182818 15.7019)
(0.238316 0.0271273 13.8449)
(0.310309 0.0264226 16.7259)
(0.288995 0.0323014 16.3609)
(0.275093 0.0159423 14.6657)
(0.238451 0.0273143 13.8548)
(0.310307 0.0263477 16.7245)
(0.288979 0.0322414 16.3592)
(0.284406 0.0553464 16.2149)
(0.209654 0.0657576 14.2556)
(0.284508 0.0550923 16.2096)
(0.209794 0.0658712 14.2567)
(0.186174 0.0813859 13.206)
(0.186569 0.0818714 13.2194)
(0.260157 0.126942 15.7996)
(0.205215 0.0959678 14.2762)
(0.260161 0.126761 15.7974)
(0.280645 0.158105 13.8752)
(0.334364 0.136348 17.7552)
(0.343385 0.165868 16.7629)
(0.30218 0.134961 16.953)
(0.281117 0.158285 13.8792)
(0.334404 0.136251 17.7551)
(0.343471 0.16572 16.7609)
(0.381975 0.182732 15.7029)
(0.381908 0.182716 15.7022)
(0.238603 0.0272758 13.8584)
(0.288966 0.0322044 16.3577)
(0.284504 0.0550833 16.2099)
(0.209874 0.0659301 14.2577)
(0.284612 0.0548345 16.2055)
(0.210066 0.06608 14.2608)
(0.186666 0.0817641 13.2241)
(0.187055 0.0822785 13.2379)
(0.260151 0.126772 15.7944)
(0.205597 0.096107 14.2816)
(0.260155 0.126602 15.7929)
(0.280531 0.158096 13.8805)
(0.334359 0.136406 17.7533)
(0.343353 0.165677 16.7588)
(0.302131 0.134842 16.9482)
(0.281026 0.158292 13.885)
(0.334371 0.136296 17.7528)
(0.343435 0.165529 16.7569)
(0.381939 0.182637 15.7033)
(0.381853 0.182615 15.7028)
(0.444517 0.130366 17.7628)
(0.403262 0.16442 16.6169)
(0.444557 0.130368 17.762)
(0.284604 0.0548077 16.2059)
(0.21017 0.0661419 14.2624)
(0.284744 0.0543788 16.2027)
(0.210467 0.0661286 14.2675)
(0.187164 0.0821692 13.2428)
(0.187642 0.082684 13.2572)
(0.260207 0.126556 15.79)
(0.206063 0.0962518 14.2887)
(0.260287 0.126288 15.7895)
(0.280441 0.158095 13.8864)
(0.334406 0.136292 17.7505)
(0.343318 0.165428 16.7548)
(0.302311 0.134481 16.9437)
(0.280899 0.158202 13.8917)
(0.334526 0.136083 17.7505)
(0.34345 0.165143 16.7532)
(0.381867 0.182512 15.7039)
(0.381757 0.182395 15.7038)
(0.444591 0.130233 17.7614)
(0.403256 0.16419 16.6162)
(0.4446 0.130126 17.761)
(0.284725 0.0544877 16.2033)
(0.210594 0.0663131 14.2699)
(0.187759 0.0826278 13.2623)
(0.26014 0.126499 15.7871)
(0.28024 0.15803 13.8934)
(0.334559 0.135933 17.7476)
(0.342995 0.165255 16.7508)
(0.381598 0.182312 15.7051)
(0.444318 0.13027 17.7607)
(0.292885 0.066541 16.8986)
(0.259416 0.0749969 16.0404)
(0.312335 0.0718491 17.6397)
(0.290349 0.0913081 16.9679)
(0.30475 0.1792 13.8937)
(0.30467 0.179087 13.8917)
(0.391146 0.0477658 15.0868)
(0.356267 0.0406615 13.8185)
(0.397362 0.0587409 15.418)
(0.361446 0.0480217 14.0916)
(0.391089 0.0478268 15.0891)
(0.35639 0.0405493 13.8175)
(0.397469 0.0586568 15.4187)
(0.405108 -0.000558628 14.1592)
(0.407194 0.028417 14.2416)
(0.40511 -0.0003659 14.1602)
(0.407114 0.0283083 14.2418)
(0.460865 0.0136415 17.1822)
(0.335219 0.00756465 17.2612)
(0.319152 0.00601443 16.4402)
(0.339597 0.0049352 17.4017)
(0.323151 0.00227224 16.5606)
(0.335148 0.0076658 17.2623)
(0.319243 0.0059653 16.4395)
(0.339616 0.00485297 17.401)
(0.327446 0.0121682 16.7072)
(0.313342 0.0109649 15.9181)
(0.330393 0.0115062 16.8914)
(0.316184 0.0102552 16.1087)
(0.327484 0.0123486 16.7088)
(0.313325 0.0108521 15.917)
(0.330359 0.0113078 16.8895)
(0.306933 0.0154892 15.954)
(0.286084 0.0125246 14.8387)
(0.311925 0.0142468 16.068)
(0.291914 0.0117153 14.9432)
(0.30684 0.0154267 15.9521)
(0.286145 0.012151 14.8383)
(0.311987 0.0142395 16.0702)
(0.283887 0.0238813 15.5945)
(0.263701 0.0181472 14.5337)