/*--------------------------------*- C++ -*----------------------------------*\
  =========                 |
  \\      /  F ield         | OpenFOAM: The Open Source CFD Toolbox
   \\    /   O peration     | Website:  https://openfoam.org
    \\  /    A nd           | Version:  10
     \\/     M anipulation  |
\*---------------------------------------------------------------------------*/
FoamFile
{
    format      ascii;
    class       volScalarField;
    location    "2000";
    object      omega;
}
// * * * * * * * * * * * * * * * * * * * * * * * * * * * * * * * * * * * * * //

dimensions      [0 0 -1 0 0 0 0];

internalField   nonuniform List<scalar> 
52338
(
1.63381
2.70971
3.57483
4.87785
5.9099
7.56015
1.45381
1.06087
0.845844
0.770588
0.871447
1.10618
1.87659
5.8313
4.47745
3.72123
2.66051
1.86969
1.97225
1.59984
1.28191
0.987902
0.797335
0.668011
0.584515
0.577028
0.800958
1.79689
10.9359
2.16039
1.65467
1.40528
1.10624
1.07974
0.930091
1.28346
0.989769
0.799909
0.669037
0.576317
0.520003
0.563975
0.832423
2.23355
8.18229
4.53657
2.07576
1.21657
1.01702
0.881327
0.797738
0.744028
0.695095
1.28624
0.992833
0.802728
0.67124
0.57649
0.509462
0.488531
0.557404
0.803301
1.21101
1.517
1.4235
1.13433
0.789927
0.687064
0.611734
0.556793
0.517721
0.488517
0.466917
1.28896
0.996032
0.805786
0.673939
0.578518
0.508467
0.464912
0.466918
0.493859
0.525854
0.525038
0.50925
0.479973
0.430893
0.396492
0.36946
0.347412
0.329522
0.314282
0.302092
1.29148
0.999113
0.808841
0.676796
0.581076
0.510105
0.458798
0.432223
0.422516
0.4175
0.401224
0.378308
0.352193
0.329028
0.307099
0.289033
0.273116
0.259231
0.246926
0.236156
1.29379
1.002
0.811771
0.679607
0.583719
0.512368
0.458363
0.42063
0.395302
0.376147
0.35601
0.335411
0.314914
0.296608
0.279327
0.263852
0.250041
0.237678
0.226552
0.216533
1.2959
1.00469
0.814524
0.682281
0.586246
0.514634
0.459502
0.417854
0.386348
0.361449
0.339301
0.319097
0.300462
0.283278
0.267531
0.253237
0.24034
0.228651
0.21805
0.208427
1.29784
1.00717
0.81709
0.684784
0.588605
0.516696
0.461055
0.417869
0.383948
0.356603
0.333185
0.312598
0.294068
0.277288
0.262148
0.248267
0.235671
0.224207
0.213782
0.204291
1.29962
1.00947
0.819475
0.687115
0.590794
0.518507
0.462678
0.418673
0.38366
0.355132
0.330898
0.309617
0.291324
0.27444
0.259353
0.245579
0.233087
0.221707
0.211344
0.201889
1.30126
1.01161
0.821694
0.689287
0.592848
0.520452
0.464098
0.419697
0.384065
0.354824
0.330017
0.308589
0.289724
0.272834
0.257755
0.244008
0.231535
0.22017
0.209817
0.200361
1.30278
1.01361
0.823608
0.691293
0.594778
0.522217
0.465637
0.420746
0.384701
0.354963
0.329732
0.307995
0.288916
0.271916
0.256776
0.243021
0.230542
0.219172
0.208813
0.199346
1.3042
1.01547
0.825746
0.693256
0.59683
0.523708
0.466983
0.421848
0.385451
0.35534
0.32977
0.307781
0.288516
0.271417
0.256261
0.242392
0.229927
0.218549
0.208175
0.198685
1.30553
1.01721
0.827563
0.695039
0.598432
0.525194
0.468267
0.422939
0.386272
0.355863
0.330044
0.307871
0.288448
0.271249
0.25593
0.242147
0.229612
0.218199
0.207802
0.19829
1.30677
1.01886
0.829264
0.696677
0.599875
0.526554
0.469487
0.424009
0.387123
0.356471
0.330488
0.308132
0.288576
0.271291
0.25589
0.242044
0.229466
0.218017
0.207586
0.198036
1.30794
1.02039
0.830843
0.698174
0.601218
0.527753
0.470559
0.424952
0.387869
0.35706
0.330882
0.308363
0.288659
0.271247
0.255714
0.241741
0.229059
0.217515
0.206994
0.197351
1.30879
1.02141
0.831755
0.698873
0.601627
0.527927
0.470509
0.4247
0.387378
0.356284
0.329869
0.307119
0.287177
0.269585
0.253883
0.239764
0.226959
0.215311
0.204693
0.194961
1.61484
2.09672
2.78419
3.51686
5.33
5.53156
1.45362
1.05954
0.84202
0.755359
0.840826
1.0498
1.62589
4.05774
4.47336
3.7247
2.66752
1.87238
1.9762
1.60021
1.28174
0.987832
0.797439
0.667998
0.584379
0.573675
0.782829
1.59919
7.88344
2.1733
1.65803
1.40725
1.10763
1.0805
0.930114
1.28349
0.989743
0.79992
0.669028
0.576263
0.519786
0.561848
0.768009
2.03281
6.0359
4.55981
1.55718
1.22527
1.01843
0.882018
0.798367
0.744611
0.695498
1.28629
0.99282
0.802734
0.671235
0.576475
0.509354
0.487748
0.557273
0.781902
1.14004
1.36339
1.35604
0.896447
0.778682
0.688515
0.613132
0.557392
0.51803
0.488759
0.46713
1.28901
0.996022
0.805794
0.673937
0.578515
0.508454
0.464691
0.466642
0.493726
0.524928
0.521536
0.503247
0.472049
0.429139
0.397201
0.369785
0.347485
0.329552
0.314338
0.302161
1.29152
0.999105
0.808851
0.676797
0.58108
0.510121
0.458799
0.432059
0.422377
0.416999
0.399358
0.377204
0.350748
0.327146
0.306029
0.288844
0.273107
0.259253
0.246953
0.236179
1.29383
1.002
0.81178
0.67961
0.583726
0.512404
0.458443
0.420635
0.395242
0.375944
0.355406
0.335018
0.31432
0.295713
0.278762
0.263773
0.250052
0.237693
0.226561
0.21654
1.29594
1.00468
0.814534
0.682285
0.586254
0.514657
0.459603
0.417879
0.38634
0.361389
0.339104
0.318938
0.300291
0.282955
0.267226
0.253188
0.240346
0.228658
0.218054
0.208429
1.29788
1.00717
0.817098
0.684789
0.588613
0.516717
0.461147
0.417896
0.383954
0.356591
0.333121
0.312482
0.293911
0.277154
0.261927
0.248218
0.23567
0.224212
0.213785
0.204292
1.29965
1.00947
0.819482
0.68712
0.590801
0.518532
0.46272
0.418695
0.383665
0.355131
0.330876
0.309559
0.29126
0.274376
0.259193
0.245538
0.233085
0.22171
0.211345
0.20189
1.3013
1.01161
0.821701
0.689291
0.592855
0.520456
0.464134
0.419695
0.384061
0.354823
0.330008
0.308572
0.289695
0.272786
0.257619
0.243962
0.23153
0.220172
0.209818
0.200362
1.30282
1.0136
0.823649
0.691286
0.594792
0.522205
0.465654
0.420763
0.3847
0.354964
0.329728
0.307984
0.288894
0.271882
0.256662
0.242965
0.230531
0.219173
0.208815
0.199346
1.30423
1.01546
0.82574
0.693263
0.596835
0.523749
0.466996
0.42186
0.385455
0.355342
0.329768
0.307774
0.288499
0.271393
0.256165
0.242325
0.229906
0.218546
0.208175
0.198686
1.30556
1.01721
0.827557
0.695046
0.598442
0.52524
0.468283
0.422951
0.386276
0.355865
0.330044
0.307867
0.288435
0.271232
0.255855
0.242077
0.229597
0.218199
0.207803
0.19829
1.3068
1.01885
0.829257
0.696682
0.599878
0.52658
0.469499
0.424018
0.387127
0.356475
0.330486
0.30813
0.288566
0.271278
0.255835
0.241991
0.229455
0.218017
0.207587
0.198037
1.30797
1.02038
0.830835
0.698178
0.601221
0.527758
0.470564
0.424957
0.387873
0.357059
0.330885
0.308359
0.28865
0.271234
0.255672
0.241705
0.229053
0.217516
0.206994
0.197352
1.30882
1.0214
0.831744
0.698876
0.601628
0.527928
0.47051
0.424703
0.387376
0.356284
0.329868
0.307116
0.287174
0.269583
0.25387
0.239754
0.226958
0.215311
0.204694
0.194961
1.60884
1.85573
2.57522
3.29216
4.93854
5.20677
1.45368
1.05912
0.841212
0.754932
0.841752
1.04359
1.59829
3.61247
4.46811
3.72519
2.67048
1.8738
1.97635
1.59999
1.28164
0.987756
0.797479
0.66801
0.584424
0.572582
0.779204
1.62166
6.99986
2.17701
1.66072
1.40833
1.10854
1.08129
0.930582
1.28351
0.989714
0.799906
0.669004
0.57624
0.520078
0.563493
0.779775
1.97334
5.37618
4.48634
1.56417
1.23109
1.02022
0.88269
0.798859
0.745119
0.695817
1.28632
0.992796
0.802716
0.67121
0.576449
0.509381
0.488243
0.559006
0.789476
1.13901
1.34969
1.3303
0.892977
0.781471
0.689037
0.614295
0.558022
0.518367
0.489015
0.467344
1.28904
0.996
0.805778
0.673915
0.578493
0.508453
0.46477
0.467081
0.494284
0.525453
0.519838
0.500954
0.470117
0.430765
0.397808
0.370184
0.347619
0.329607
0.314403
0.302239
1.29155
0.999086
0.808837
0.676778
0.581063
0.510139
0.458765
0.432111
0.422512
0.417049
0.39898
0.377125
0.350897
0.327438
0.306283
0.288768
0.273092
0.259271
0.24698
0.236206
1.29386
1.00198
0.811769
0.679595
0.583714
0.512413
0.458392
0.420638
0.395272
0.375929
0.355289
0.334972
0.314338
0.295756
0.278798
0.263739
0.250057
0.237706
0.226572
0.216548
1.29597
1.00467
0.814524
0.682273
0.586245
0.51466
0.459565
0.417881
0.386347
0.361382
0.339069
0.318934
0.300331
0.282879
0.267248
0.253173
0.24035
0.228665
0.218059
0.208432
1.29791
1.00715
0.81709
0.684779
0.588607
0.516721
0.461117
0.417895
0.383956
0.35659
0.333109
0.312458
0.293968
0.277135
0.261933
0.248198
0.235668
0.224215
0.213788
0.204295
1.29968
1.00946
0.819476
0.687113
0.590797
0.518552
0.462685
0.418688
0.38367
0.355131
0.33087
0.309576
0.291229
0.274364
0.259202
0.245525
0.233082
0.221711
0.211347
0.201892
1.30132
1.0116
0.821696
0.689285
0.592852
0.520448
0.46414
0.419681
0.384064
0.354822
0.330005
0.308572
0.289694
0.272776
0.25762
0.243949
0.231526
0.220173
0.20982
0.200363
1.30285
1.01359
0.823672
0.691278
0.594796
0.522183
0.465651
0.420764
0.384701
0.354962
0.329725
0.307984
0.288892
0.271874
0.256661
0.242951
0.230525
0.219173
0.208816
0.199347
1.30426
1.01546
0.82573
0.693263
0.596825
0.523753
0.466995
0.42186
0.385454
0.35534
0.329767
0.307775
0.288497
0.271386
0.256146
0.242332
0.229898
0.218544
0.208175
0.198686
1.30559
1.0172
0.827547
0.695047
0.598446
0.525229
0.468285
0.422953
0.386276
0.355864
0.330043
0.307867
0.288433
0.271228
0.255852
0.242069
0.22959
0.218198
0.207804
0.198291
1.30683
1.01884
0.829247
0.696683
0.599883
0.526571
0.4695
0.42402
0.387126
0.356477
0.330484
0.30813
0.288565
0.271276
0.255832
0.241985
0.22945
0.218017
0.207588
0.198037
1.30799
1.02038
0.830825
0.698179
0.601221
0.527756
0.470564
0.424959
0.387874
0.357056
0.330887
0.30836
0.288649
0.271234
0.255672
0.2417
0.229049
0.217516
0.206995
0.197352
1.30885
1.0214
0.831734
0.698877
0.601628
0.527928
0.47051
0.424704
0.387375
0.356285
0.32987
0.307115
0.287172
0.269585
0.253869
0.23975
0.226957
0.215312
0.204694
0.194961
1.60555
1.67622
2.43218
3.14897
4.85341
5.09747
1.45371
1.05869
0.840292
0.753465
0.840879
1.03599
1.57283
3.36788
4.4644
3.72379
2.67226
1.87505
1.97608
1.59949
1.28154
0.987684
0.797499
0.668019
0.584397
0.57141
0.774811
1.58244
6.7577
2.17329
1.66205
1.40849
1.10906
1.0819
0.930869
1.28352
0.989694
0.799894
0.668987
0.576219
0.520204
0.564095
0.785021
1.87066
5.21619
4.37637
1.56304
1.23431
1.02183
0.883227
0.79916
0.745454
0.69605
1.28634
0.992781
0.8027
0.671191
0.57643
0.509404
0.488589
0.560317
0.791649
1.13709
1.33663
1.31465
0.88981
0.782205
0.689362
0.615173
0.558565
0.518648
0.489217
0.467516
1.28906
0.995987
0.805764
0.673898
0.578476
0.508455
0.464839
0.467446
0.494803
0.525925
0.518614
0.498973
0.468176
0.431516
0.398338
0.370576
0.347775
0.32966
0.314452
0.302303
1.29157
0.999074
0.808824
0.676763
0.58105
0.510155
0.458742
0.432151
0.422623
0.417106
0.398669
0.376989
0.350937
0.327664
0.30652
0.288749
0.273075
0.25928
0.247002
0.236229
1.29388
1.00197
0.811759
0.679582
0.583704
0.512421
0.45835
0.420633
0.395293
0.37592
0.355191
0.334921
0.314333
0.295797
0.278848
0.263722
0.250059
0.237717
0.226582
0.216556
1.29599
1.00466
0.814515
0.682262
0.586237
0.514663
0.459534
0.417878
0.386351
0.361377
0.33904
0.318924
0.300357
0.282833
0.267275
0.253165
0.240352
0.228671
0.218063
0.208436
1.29793
1.00715
0.817083
0.684771
0.588601
0.516724
0.461092
0.41789
0.383956
0.356588
0.3331
0.312437
0.294009
0.27713
0.261955
0.248186
0.235664
0.224216
0.21379
0.204296
1.2997
1.00945
0.81947
0.687106
0.590793
0.518568
0.462658
0.418679
0.383674
0.355131
0.330865
0.309589
0.291208
0.274352
0.259224
0.24552
0.23308
0.221712
0.211348
0.201892
1.30134
1.01159
0.821692
0.68928
0.592849
0.520441
0.464144
0.41967
0.384066
0.354821
0.330002
0.308571
0.289694
0.27277
0.257634
0.243944
0.231522
0.220174
0.209821
0.200363
1.30287
1.01359
0.82369
0.691274
0.594799
0.522166
0.465645
0.420764
0.384704
0.354961
0.329723
0.307984
0.288891
0.27187
0.256672
0.242949
0.230521
0.219172
0.208816
0.199347
1.30428
1.01545
0.825722
0.693261
0.596817
0.523754
0.466994
0.42186
0.385454
0.355339
0.329766
0.307774
0.288496
0.271383
0.256141
0.242345
0.229895
0.218541
0.208175
0.198687
1.30561
1.0172
0.827539
0.695046
0.59845
0.525221
0.468284
0.422954
0.386276
0.355864
0.330042
0.307867
0.288432
0.271225
0.255856
0.24207
0.229586
0.218197
0.207805
0.198291
1.30685
1.01884
0.82924
0.696682
0.599887
0.526564
0.469499
0.424022
0.387126
0.356479
0.330483
0.30813
0.288564
0.271275
0.255835
0.241986
0.229447
0.218016
0.207588
0.198038
1.30801
1.02038
0.830818
0.698178
0.601221
0.527755
0.470563
0.42496
0.387875
0.357054
0.330888
0.308361
0.288647
0.271234
0.255674
0.2417
0.229047
0.217516
0.206996
0.197352
1.30886
1.0214
0.831727
0.698876
0.601628
0.527928
0.47051
0.424705
0.387374
0.356285
0.329871
0.307115
0.28717
0.269586
0.25387
0.239748
0.226957
0.215312
0.204694
0.194961
1.60383
1.55095
2.33743
3.06728
4.85513
5.07282
1.45373
1.05831
0.839313
0.751105
0.839172
1.02839
1.54861
3.24437
4.46025
3.72144
2.67348
1.87636
1.97613
1.59893
1.28146
0.987618
0.797504
0.668023
0.584341
0.570263
0.769868
1.53425
6.76415
2.16625
1.66222
1.40818
1.10935
1.08239
0.930573
1.28353
0.989682
0.799886
0.668976
0.576201
0.520221
0.564021
0.784568
1.80772
5.20596
4.33181
1.55861
1.23543
1.02308
0.8837
0.799331
0.74566
0.696262
1.28635
0.992774
0.802691
0.671179
0.576417
0.50942
0.488803
0.560968
0.789896
1.13328
1.32506
1.30009
0.886748
0.781774
0.68941
0.615801
0.55901
0.518859
0.489354
0.46765
1.28907
0.995982
0.805755
0.673887
0.578466
0.508459
0.464895
0.467721
0.495225
0.526355
0.517767
0.497273
0.466363
0.431703
0.398739
0.370934
0.347939
0.329706
0.31448
0.302346
1.29159
0.999068
0.808817
0.676753
0.581042
0.51017
0.458731
0.432182
0.42271
0.417167
0.398416
0.376816
0.350912
0.327831
0.306726
0.288765
0.27306
0.259278
0.247013
0.236247
1.2939
1.00197
0.811752
0.679574
0.583698
0.512429
0.458321
0.420623
0.395303
0.375909
0.355102
0.334867
0.314318
0.295826
0.278891
0.263713
0.250057
0.237723
0.226589
0.216563
1.29601
1.00466
0.814509
0.682255
0.586233
0.514666
0.45951
0.417872
0.386352
0.361371
0.339014
0.318911
0.300374
0.282803
0.267293
0.253162
0.240352
0.228675
0.218067
0.208438
1.29794
1.00714
0.817079
0.684765
0.588598
0.516728
0.461074
0.417884
0.383956
0.356587
0.333092
0.31242
0.294039
0.277131
0.261974
0.24818
0.235659
0.224218
0.213792
0.204298
1.29972
1.00945
0.819467
0.687102
0.59079
0.51858
0.462639
0.418669
0.383675
0.355132
0.330863
0.3096
0.291195
0.27434
0.25924
0.245518
0.233077
0.221713
0.211349
0.201893
1.30136
1.01159
0.821689
0.689277
0.592847
0.520437
0.464146
0.419662
0.384066
0.354821
0.33
0.30857
0.289694
0.272765
0.257646
0.243942
0.231519
0.220173
0.209821
0.200364
1.30288
1.01359
0.823705
0.691273
0.594801
0.522153
0.465639
0.420763
0.384706
0.354961
0.329722
0.307983
0.28889
0.271866
0.256681
0.242948
0.230517
0.219172
0.208817
0.199348
1.3043
1.01545
0.825716
0.693259
0.596811
0.523754
0.466994
0.42186
0.385455
0.355338
0.329765
0.307774
0.288495
0.27138
0.256138
0.242356
0.229894
0.218539
0.208175
0.198687
1.30562
1.0172
0.827533
0.695045
0.598453
0.525214
0.468283
0.422955
0.386276
0.355864
0.330042
0.307867
0.288431
0.271223
0.255861
0.242072
0.229583
0.218195
0.207805
0.198292
1.30686
1.01885
0.829235
0.696681
0.59989
0.526559
0.469498
0.424023
0.387126
0.35648
0.330482
0.30813
0.288563
0.271274
0.255839
0.241987
0.229445
0.218015
0.207589
0.198038
1.30803
1.02038
0.830813
0.698177
0.601221
0.527754
0.470563
0.424961
0.387876
0.357053
0.330889
0.308362
0.288646
0.271233
0.255677
0.241701
0.229046
0.217515
0.206996
0.197353
1.30888
1.0214
0.831721
0.698875
0.601627
0.527927
0.47051
0.424706
0.387373
0.356284
0.329872
0.307115
0.287168
0.269587
0.25387
0.239747
0.226956
0.215312
0.204694
0.194961
1.60297
1.47083
2.27625
3.0363
4.87197
5.08237
1.45374
1.05798
0.838338
0.748208
0.836747
1.02151
1.5284
3.20725
4.4556
3.7183
2.67417
1.8777
1.9765
1.59845
1.28139
0.987563
0.797499
0.668018
0.58427
0.569176
0.764778
1.49559
6.78263
2.15914
1.66154
1.40759
1.1095
1.08279
0.930841
1.28354
0.989676
0.799883
0.668971
0.576187
0.52017
0.563505
0.780826
1.79764
5.29764
4.33975
1.55378
1.23513
1.02391
0.884115
0.799425
0.745777
0.696346
1.28636
0.992771
0.802686
0.671172
0.576409
0.509429
0.488909
0.560984
0.786081
1.12829
1.31575
1.28644
0.883609
0.780608
0.689138
0.616205
0.559376
0.519027
0.489447
0.467726
1.28908
0.995978
0.80575
0.67388
0.57846
0.508465
0.46494
0.467899
0.495487
0.52671
0.517232
0.495856
0.464693
0.431506
0.398982
0.371241
0.348107
0.329752
0.314494
0.30237
1.2916
0.999066
0.808812
0.676748
0.581037
0.510183
0.458727
0.432208
0.422772
0.417229
0.398221
0.376631
0.350837
0.32794
0.306899
0.288803
0.273051
0.259269
0.247017
0.236258
1.29391
1.00196
0.811748
0.679568
0.583695
0.512439
0.458302
0.420612
0.395305
0.375898
0.355025
0.334811
0.314295
0.295843
0.278925
0.263709
0.250053
0.237726
0.226594
0.216568
1.29602
1.00466
0.814506
0.682251
0.58623
0.514671
0.459494
0.417864
0.386349
0.361363
0.338989
0.318894
0.300383
0.282781
0.267304
0.253159
0.24035
0.228678
0.21807
0.208441
1.29795
1.00714
0.817076
0.684762
0.588596
0.516732
0.461061
0.417877
0.383954
0.356585
0.333085
0.312404
0.294059
0.277135
0.261991
0.248177
0.235654
0.224217
0.213793
0.204299
1.29973
1.00945
0.819465
0.687099
0.590788
0.518591
0.462627
0.418659
0.383675
0.355133
0.330861
0.309608
0.291186
0.274329
0.259251
0.245519
0.233074
0.221712
0.21135
0.201894
1.30137
1.01159
0.821688
0.689275
0.592846
0.520435
0.464147
0.419656
0.384066
0.354821
0.329999
0.308569
0.289695
0.272762
0.257655
0.243942
0.231515
0.220172
0.209822
0.200364
1.30289
1.01359
0.823717
0.691275
0.594804
0.522143
0.465634
0.420761
0.384707
0.354961
0.329721
0.307983
0.28889
0.271863
0.256688
0.242949
0.230515
0.21917
0.208817
0.199348
1.30431
1.01546
0.825712
0.693258
0.596807
0.523753
0.466993
0.42186
0.385455
0.355338
0.329764
0.307774
0.288495
0.271377
0.256135
0.242363
0.229895
0.218537
0.208174
0.198687
1.30563
1.01721
0.82753
0.695044
0.598455
0.52521
0.468281
0.422956
0.386276
0.355864
0.330042
0.307867
0.28843
0.271221
0.255864
0.242074
0.229581
0.218194
0.207805
0.198292
1.30687
1.01885
0.829231
0.69668
0.599893
0.526556
0.469497
0.424023
0.387127
0.356481
0.330481
0.308129
0.288562
0.271273
0.255842
0.241989
0.229443
0.218014
0.207589
0.198038
1.30804
1.02039
0.830809
0.698175
0.601221
0.527753
0.470562
0.424961
0.387877
0.357052
0.330889
0.308363
0.288646
0.271233
0.255679
0.241702
0.229044
0.217514
0.206996
0.197353
1.30889
1.02141
0.831718
0.698873
0.601627
0.527927
0.47051
0.424707
0.387372
0.356284
0.329873
0.307115
0.287167
0.269588
0.253871
0.239746
0.226956
0.215312
0.204694
0.194962
1.60254
1.42263
2.23862
3.04063
4.88788
5.09947
1.45375
1.05771
0.8374
0.745078
0.83375
1.01565
1.51333
3.21732
4.45195
3.71447
2.67429
1.87896
1.9771
1.5981
1.28135
0.987515
0.797485
0.668001
0.584188
0.568157
0.759934
1.46935
6.77343
2.15356
1.66046
1.4068
1.10952
1.08311
0.931054
1.28354
0.989672
0.799881
0.668968
0.576175
0.520075
0.562698
0.77584
1.81467
5.40898
4.35237
1.54989
1.23405
1.02433
0.884483
0.799482
0.745839
0.696405
1.28637
0.992771
0.802684
0.671169
0.576405
0.509431
0.488928
0.560551
0.781839
1.12349
1.3088
1.27452
0.880569
0.779034
0.688558
0.6164
0.559671
0.519166
0.489514
0.467777
1.28909
0.995979
0.805749
0.673877
0.578457
0.508471
0.464976
0.467985
0.495557
0.526932
0.516902
0.494709
0.463203
0.431057
0.399062
0.371484
0.348274
0.329804
0.314502
0.302381
1.2916
0.999067
0.808811
0.676745
0.581036
0.510196
0.458729
0.432228
0.42281
0.417287
0.398082
0.376452
0.350728
0.327999
0.307039
0.288855
0.27305
0.259259
0.247015
0.236264
1.29391
1.00197
0.811747
0.679566
0.583694
0.512448
0.45829
0.420602
0.3953
0.375886
0.354957
0.334755
0.314265
0.295851
0.278952
0.263709
0.250048
0.237727
0.226597
0.216571
1.29602
1.00466
0.814506
0.682249
0.586229
0.514676
0.459483
0.417856
0.386344
0.361354
0.338967
0.318875
0.300385
0.282765
0.267309
0.253156
0.240348
0.228679
0.218072
0.208442
1.29796
1.00715
0.817076
0.68476
0.588595
0.516736
0.461053
0.417871
0.383951
0.356582
0.333078
0.31239
0.294072
0.27714
0.262004
0.248177
0.23565
0.224215
0.213794
0.2043
1.29974
1.00945
0.819465
0.687097
0.590787
0.5186
0.462619
0.418651
0.383673
0.355132
0.330859
0.309613
0.291179
0.27432
0.259259
0.24552
0.233072
0.221712
0.21135
0.201894
1.30138
1.0116
0.821688
0.689274
0.592845
0.520433
0.464149
0.419651
0.384064
0.354821
0.329998
0.308568
0.289695
0.272759
0.257661
0.243943
0.231513
0.220171
0.209822
0.200365
1.3029
1.0136
0.823726
0.691278
0.594807
0.522137
0.465629
0.420759
0.384708
0.354961
0.32972
0.307982
0.288889
0.271861
0.256694
0.242951
0.230513
0.219169
0.208817
0.199349
1.30432
1.01546
0.825709
0.693256
0.596804
0.523753
0.466993
0.42186
0.385455
0.355337
0.329763
0.307773
0.288494
0.271375
0.256132
0.242369
0.229897
0.218536
0.208173
0.198687
1.30564
1.01721
0.827527
0.695043
0.598457
0.525207
0.46828
0.422956
0.386276
0.355864
0.330042
0.307867
0.28843
0.27122
0.255867
0.242077
0.22958
0.218192
0.207804
0.198292
1.30688
1.01885
0.829229
0.696679
0.599895
0.526553
0.469496
0.424024
0.387127
0.356482
0.330481
0.308129
0.288562
0.271272
0.255844
0.24199
0.229442
0.218013
0.207588
0.198038
1.30805
1.02039
0.830807
0.698174
0.601221
0.527753
0.470562
0.424962
0.387878
0.357052
0.330889
0.308364
0.288646
0.271232
0.25568
0.241702
0.229043
0.217514
0.206996
0.197353
1.3089
1.02141
0.831716
0.698872
0.601627
0.527927
0.47051
0.424708
0.387372
0.356284
0.329873
0.307115
0.287166
0.269588
0.253872
0.239746
0.226955
0.215312
0.204694
0.194962
1.60234
1.39493
2.22042
3.06487
4.90192
5.11142
1.45375
1.05749
0.836524
0.741943
0.830395
1.01088
1.50315
3.24099
4.45121
3.71024
2.67378
1.88004
1.97787
1.59793
1.28131
0.987475
0.797465
0.667971
0.584092
0.567216
0.755615
1.45344
6.76448
2.14978
1.65941
1.40588
1.10943
1.08336
0.931242
1.28354
0.98967
0.799881
0.668967
0.576163
0.519954
0.561724
0.770922
1.83691
5.46659
4.35457
1.54729
1.23266
1.02441
0.88479
0.799518
0.745864
0.696448
1.28637
0.992772
0.802685
0.671168
0.576402
0.509427
0.488869
0.559877
0.778115
1.11954
1.30415
1.26505
0.877658
0.777284
0.687733
0.616401
0.559899
0.519288
0.489561
0.467811
1.28909
0.99598
0.80575
0.673877
0.578457
0.508476
0.465001
0.467987
0.495447
0.526975
0.516681
0.4938
0.461896
0.430455
0.398996
0.371653
0.348431
0.329864
0.314509
0.302385
1.29161
0.999069
0.808812
0.676745
0.581036
0.510207
0.458735
0.432243
0.422822
0.417324
0.397982
0.376289
0.350602
0.328015
0.307148
0.288912
0.273059
0.259251
0.247009
0.236266
1.29392
1.00197
0.811748
0.679566
0.583695
0.512456
0.458284
0.420595
0.395292
0.375873
0.3549
0.334701
0.314231
0.295851
0.278972
0.263711
0.250044
0.237726
0.226599
0.216573
1.29603
1.00466
0.814506
0.682249
0.58623
0.514682
0.459476
0.417848
0.386337
0.361343
0.338946
0.318855
0.300383
0.282751
0.267311
0.253155
0.240345
0.228679
0.218073
0.208443
1.29796
1.00715
0.817076
0.684759
0.588595
0.51674
0.461047
0.417865
0.383947
0.356578
0.333071
0.312377
0.294079
0.277144
0.262015
0.248178
0.235648
0.224214
0.213794
0.204301
1.29974
1.00946
0.819465
0.687097
0.590787
0.518608
0.462615
0.418644
0.38367
0.355131
0.330857
0.309617
0.291175
0.274311
0.259263
0.245522
0.233071
0.221711
0.21135
0.201895
1.30138
1.0116
0.821688
0.689273
0.592845
0.520433
0.46415
0.419648
0.384063
0.35482
0.329996
0.308567
0.289696
0.272756
0.257666
0.243944
0.231511
0.22017
0.209822
0.200365
1.30291
1.0136
0.823735
0.691283
0.59481
0.522132
0.465624
0.420757
0.384708
0.354961
0.329719
0.307981
0.288889
0.271859
0.256697
0.242952
0.230511
0.219167
0.208816
0.199349
1.30432
1.01546
0.825708
0.693255
0.596801
0.523752
0.466993
0.42186
0.385455
0.355337
0.329763
0.307773
0.288494
0.271374
0.25613
0.242373
0.229898
0.218535
0.208172
0.198687
1.30565
1.01721
0.827526
0.695042
0.598459
0.525204
0.468278
0.422956
0.386276
0.355864
0.330041
0.307866
0.288429
0.271218
0.255869
0.242079
0.229579
0.218191
0.207804
0.198292
1.30689
1.01886
0.829228
0.696678
0.599896
0.526552
0.469494
0.424024
0.387128
0.356483
0.330481
0.308129
0.288561
0.271271
0.255845
0.241992
0.229441
0.218012
0.207588
0.198038
1.30805
1.02039
0.830806
0.698173
0.60122
0.527752
0.470561
0.424962
0.387878
0.357051
0.330889
0.308365
0.288646
0.271232
0.255681
0.241703
0.229043
0.217513
0.206996
0.197353
1.3089
1.02142
0.831714
0.698871
0.601626
0.527926
0.470509
0.424708
0.387372
0.356284
0.329874
0.307115
0.287165
0.269588
0.253872
0.239745
0.226955
0.215312
0.204695
0.194962
1.60224
1.37956
2.21762
3.09742
4.91435
5.11493
1.45375
1.05732
0.835724
0.738949
0.826919
1.00712
1.49692
3.25925
4.45419
3.70612
2.67264
1.88081
1.97873
1.59794
1.28128
0.987442
0.797444
0.66793
0.583982
0.566358
0.751962
1.44498
6.7601
2.14749
1.65866
1.40497
1.10923
1.08354
0.931408
1.28355
0.98967
0.799882
0.668965
0.576152
0.519818
0.560678
0.766667
1.85544
5.48211
4.35197
1.5459
1.23129
1.02423
0.885034
0.799545
0.745861
0.696478
1.28638
0.992775
0.802688
0.671169
0.5764
0.509417
0.488747
0.559114
0.775299
1.11617
1.3016
1.25846
0.875013
0.775537
0.686726
0.616218
0.560053
0.519395
0.489602
0.467836
1.28909
0.995984
0.805752
0.673878
0.578457
0.50848
0.465014
0.467923
0.495197
0.526818
0.51649
0.493087
0.460774
0.429777
0.398804
0.371744
0.34857
0.32993
0.31452
0.302386
1.29161
0.999071
0.808814
0.676746
0.581038
0.510217
0.458742
0.43225
0.422812
0.417332
0.397906
0.376147
0.35047
0.327998
0.307225
0.288968
0.273075
0.259246
0.247001
0.236264
1.29392
1.00197
0.81175
0.679567
0.583696
0.512465
0.458282
0.42059
0.395282
0.375857
0.354851
0.334648
0.314195
0.295844
0.278986
0.263714
0.250041
0.237724
0.226599
0.216573
1.29603
1.00466
0.814508
0.682249
0.586231
0.514687
0.459472
0.417843
0.38633
0.361332
0.338926
0.318836
0.300376
0.282739
0.267311
0.253153
0.240342
0.228679
0.218074
0.208444
1.29797
1.00715
0.817078
0.68476
0.588596
0.516745
0.461044
0.417861
0.383943
0.356573
0.333064
0.312365
0.294082
0.277148
0.262025
0.248181
0.235645
0.224212
0.213793
0.204301
1.29975
1.00946
0.819467
0.687097
0.590788
0.518614
0.462613
0.418639
0.383667
0.355129
0.330855
0.30962
0.291173
0.274304
0.259265
0.245523
0.23307
0.22171
0.21135
0.201895
1.30139
1.0116
0.82169
0.689274
0.592846
0.520433
0.464151
0.419646
0.384061
0.354819
0.329995
0.308566
0.289696
0.272755
0.25767
0.243946
0.23151
0.220168
0.209822
0.200365
1.30291
1.0136
0.823743
0.691287
0.594814
0.52213
0.465621
0.420755
0.384708
0.354961
0.329719
0.30798
0.288889
0.271857
0.2567
0.242954
0.230511
0.219166
0.208816
0.199349
1.30433
1.01547
0.825709
0.693255
0.596799
0.523751
0.466993
0.42186
0.385455
0.355337
0.329762
0.307772
0.288493
0.271372
0.256128
0.242376
0.2299
0.218535
0.208171
0.198686
1.30565
1.01722
0.827526
0.695042
0.59846
0.525203
0.468277
0.422956
0.386276
0.355864
0.330041
0.307866
0.288429
0.271217
0.25587
0.242081
0.229578
0.21819
0.207803
0.198292
1.30689
1.01886
0.829228
0.696677
0.599898
0.526551
0.469493
0.424024
0.387128
0.356484
0.330481
0.308129
0.28856
0.27127
0.255846
0.241993
0.229441
0.218011
0.207588
0.198039
1.30806
1.0204
0.830806
0.698173
0.60122
0.527752
0.470561
0.424962
0.387879
0.357051
0.330889
0.308366
0.288646
0.271232
0.255682
0.241704
0.229042
0.217512
0.206996
0.197353
1.30891
1.02142
0.831714
0.69887
0.601626
0.527926
0.470509
0.424708
0.387372
0.356283
0.329874
0.307115
0.287164
0.269588
0.253873
0.239745
0.226954
0.215311
0.204695
0.194962
1.6022
1.37132
2.22487
3.13046
4.92464
5.11123
1.45375
1.05719
0.835013
0.736176
0.823548
1.00422
1.49362
3.26634
4.46042
3.70271
2.67097
1.88118
1.97961
1.59813
1.28126
0.987415
0.797421
0.667878
0.583857
0.565578
0.748998
1.44128
6.75472
2.14621
1.65833
1.4042
1.10895
1.08362
0.931079
1.28355
0.98967
0.799883
0.668964
0.576139
0.519673
0.559631
0.763257
1.86834
5.49301
4.3492
1.54544
1.23011
1.02387
0.885202
0.799563
0.745834
0.69655
1.28638
0.992777
0.80269
0.67117
0.576399
0.509402
0.488577
0.558361
0.773479
1.11304
1.30069
1.25479
0.872684
0.773919
0.685641
0.615877
0.560124
0.519482
0.489633
0.467864
1.2891
0.995986
0.805754
0.673879
0.578458
0.508483
0.465014
0.467814
0.494857
0.526478
0.516267
0.492519
0.459814
0.429072
0.398513
0.371755
0.348681
0.329999
0.314536
0.302385
1.29161
0.999074
0.808816
0.676748
0.58104
0.510226
0.45875
0.432249
0.422778
0.417303
0.39784
0.376023
0.350338
0.327955
0.307274
0.289018
0.273097
0.259246
0.246994
0.236261
1.29392
1.00197
0.811752
0.679569
0.583698
0.512472
0.458282
0.420586
0.395272
0.375838
0.354806
0.334597
0.314157
0.295831
0.278995
0.263717
0.250038
0.237722
0.226598
0.216574
1.29604
1.00466
0.81451
0.682251
0.586233
0.514692
0.45947
0.417838
0.386323
0.36132
0.338907
0.318816
0.300367
0.282728
0.267309
0.253152
0.240339
0.228677
0.218075
0.208445
1.29797
1.00715
0.81708
0.684761
0.588598
0.516749
0.461042
0.417858
0.383939
0.356568
0.333057
0.312354
0.294083
0.27715
0.262033
0.248185
0.235644
0.22421
0.213793
0.204301
1.29975
1.00946
0.819469
0.687099
0.590789
0.51862
0.462612
0.418635
0.383664
0.355127
0.330852
0.309622
0.291171
0.274298
0.259266
0.245525
0.233069
0.221709
0.21135
0.201895
1.30139
1.01161
0.821692
0.689275
0.592847
0.520434
0.464152
0.419645
0.38406
0.354818
0.329994
0.308564
0.289695
0.272753
0.257673
0.243948
0.231509
0.220167
0.209821
0.200365
1.30291
1.0136
0.823749
0.691293
0.594818
0.522129
0.465618
0.420753
0.384707
0.354961
0.329718
0.30798
0.288888
0.271856
0.256702
0.242956
0.23051
0.219165
0.208815
0.199349
1.30433
1.01547
0.82571
0.693255
0.596798
0.523751
0.466992
0.42186
0.385456
0.355337
0.329762
0.307772
0.288493
0.271371
0.256126
0.242378
0.229902
0.218535
0.208171
0.198686
1.30566
1.01722
0.827527
0.695042
0.598461
0.525203
0.468276
0.422956
0.386277
0.355864
0.330041
0.307866
0.288428
0.271216
0.255871
0.242083
0.229578
0.218189
0.207803
0.198292
1.3069
1.01886
0.829228
0.696677
0.599899
0.52655
0.469493
0.424024
0.387128
0.356484
0.330481
0.308129
0.28856
0.27127
0.255847
0.241995
0.229441
0.21801
0.207587
0.198038
1.30806
1.0204
0.830806
0.698172
0.60122
0.527751
0.470561
0.424962
0.387879
0.357051
0.330889
0.308366
0.288646
0.271232
0.255683
0.241705
0.229042
0.217512
0.206995
0.197353
1.30891
1.02142
0.831714
0.698869
0.601626
0.527926
0.470509
0.424709
0.387372
0.356283
0.329874
0.307115
0.287164
0.269588
0.253873
0.239745
0.226954
0.215311
0.204695
0.194962
1.60218
1.36704
2.23651
3.15939
4.93239
5.10276
1.45375
1.05709
0.834397
0.733664
0.820445
1.002
1.49232
3.26363
4.46881
3.70052
2.66887
1.88111
1.98041
1.59849
1.28125
0.987393
0.797398
0.667819
0.583719
0.564878
0.74668
1.44024
6.74409
2.14551
1.65837
1.40371
1.10854
1.08359
0.930865
1.28355
0.98967
0.799884