/*--------------------------------*- C++ -*----------------------------------*\
  =========                 |
  \\      /  F ield         | OpenFOAM: The Open Source CFD Toolbox
   \\    /   O peration     | Website:  https://openfoam.org
    \\  /    A nd           | Version:  10
     \\/     M anipulation  |
\*---------------------------------------------------------------------------*/
FoamFile
{
    format      ascii;
    class       volScalarField;
    location    "2000";
    object      p;
}
// * * * * * * * * * * * * * * * * * * * * * * * * * * * * * * * * * * * * * //

dimensions      [0 2 -2 0 0 0 0];

internalField   nonuniform List<scalar> 
52338
(
2.7337
3.2105
3.62948
2.80558
2.85611
4.17566
2.47185
2.36541
2.57691
2.67208
2.82009
3.4407
3.10806
3.02135
-0.704062
-0.408515
-0.257783
0.274573
0.302063
0.052152
2.36679
2.33689
2.42644
2.50186
2.68068
3.02628
3.28822
2.26829
-3.43915
-0.770849
-0.394326
-0.139446
0.0514524
0.077769
0.0662435
2.24765
2.23578
2.28893
2.32289
2.40489
2.50854
2.38535
1.29517
-3.54365
-4.90048
-3.94854
-2.74976
-0.932889
-0.479058
-0.187199
-0.0447461
-0.0839938
0.0023048
2.12737
2.12127
2.13892
2.13556
2.1283
2.05867
1.68146
0.363383
-3.00183
-4.95322
-6.47712
-5.55329
-4.26716
-1.87829
-1.03282
-0.61915
-0.290834
-0.116223
-0.12762
-0.0280497
2.01298
2.00666
1.99657
1.95553
1.87774
1.68439
1.19185
-0.126262
-2.88522
-4.39341
-5.17347
-4.50383
-3.1108
-1.938
-1.14112
-0.722454
-0.393754
-0.206351
-0.147484
-0.0501972
1.90446
1.8961
1.86167
1.78739
1.65309
1.38756
0.818602
-0.289349
-2.45429
-3.68858
-4.38477
-3.82502
-2.88566
-1.95811
-1.23825
-0.812063
-0.478009
-0.265238
-0.171914
-0.0739124
1.80267
1.79102
1.73623
1.63388
1.45757
1.14519
0.559554
-0.424443
-2.12908
-3.18396
-3.76176
-3.43644
-2.68009
-1.91372
-1.27879
-0.865585
-0.540737
-0.324297
-0.193541
-0.0910387
1.70773
1.69255
1.62076
1.49545
1.28828
0.948097
0.367085
-0.504228
-1.8678
-2.76501
-3.26912
-3.04868
-2.4711
-1.85228
-1.30015
-0.910483
-0.594594
-0.371178
-0.211023
-0.106934
1.62027
1.60157
1.51586
1.3723
1.14356
0.788337
0.226304
-0.551072
-1.6612
-2.43229
-2.86784
-2.76664
-2.30553
-1.78995
-1.30366
-0.93781
-0.63186
-0.409299
-0.226179
-0.120038
1.54094
1.51857
1.42172
1.26394
1.02062
0.658838
0.121558
-0.577862
-1.4998
-2.1628
-2.55424
-2.50165
-2.14203
-1.72251
-1.29466
-0.956797
-0.660958
-0.440977
-0.238348
-0.131098
1.47031
1.44416
1.33837
1.16946
0.916958
0.555329
0.0435558
-0.591803
-1.36939
-1.95221
-2.29903
-2.2875
-2.00929
-1.66749
-1.285
-0.971185
-0.681709
-0.465792
-0.247988
-0.140297
1.4087
1.37899
1.26564
1.08779
0.829907
0.47218
-0.0116821
-0.596849
-1.26744
-1.7845
-2.09913
-2.11498
-1.90115
-1.61078
-1.26791
-0.978156
-0.695258
-0.485018
-0.255304
-0.147719
1.35648
1.32364
1.20497
1.02087
0.760921
0.408268
-0.0516147
-0.596477
-1.18751
-1.65908
-1.94319
-1.97925
-1.81834
-1.56528
-1.25622
-0.984442
-0.706001
-0.500281
-0.261168
-0.153781
1.31389
1.27845
1.15665
0.969501
0.708824
0.361474
-0.0797725
-0.595475
-1.12652
-1.56406
-1.82367
-1.8742
-1.75439
-1.52629
-1.24256
-0.986269
-0.711896
-0.510741
-0.264948
-0.158234
1.28129
1.24379
1.12031
0.931668
0.671037
0.32741
-0.0999941
-0.592605
-1.08761
-1.49051
-1.73459
-1.80656
-1.70887
-1.49806
-1.23242
-0.986775
-0.716669
-0.518905
-0.268101
-0.161764
1.25894
1.21974
1.09552
0.906377
0.64604
0.305132
-0.112756
-0.591075
-1.06158
-1.4495
-1.68779
-1.74929
-1.67681
-1.47777
-1.22359
-0.985755
-0.718611
-0.523482
-0.269649
-0.163874
1.24782
1.20741
1.08281
0.893476
0.633063
0.293235
-0.12005
-0.59254
-1.04808
-1.43038
-1.66148
-1.72141
-1.66467
-1.46761
-1.21878
-0.985377
-0.719992
-0.526166
-0.27069
-0.165178
2.88479
2.32712
2.49176
2.50839
2.64983
3.2328
2.48234
2.27242
2.36547
2.4241
2.62152
2.99543
3.28783
3.832
-0.630585
-0.387543
-0.259993
0.276163
0.3012
0.052689
2.2777
2.18485
2.24198
2.31562
2.45141
2.66769
2.69728
2.02652
-2.3657
-0.684219
-0.367342
-0.14335
0.0559394
0.0823521
0.0682078
2.17465
2.10677
2.14024
2.17367
2.23071
2.27788
2.08158
1.24273
-3.39798
-6.10233
-2.84668
-1.79921
-0.764419
-0.446981
-0.193438
-0.0424889
-0.0803401
0.00412014
2.07421
2.02257
2.02706
2.0238
2.00396
1.91746
1.48818
0.00685862
-3.22373
-5.37127
-6.90369
-4.88379
-2.99341
-1.88198
-0.959469
-0.581114
-0.291577
-0.116045
-0.124985
-0.0268758
1.97437
1.93186
1.9123
1.87203
1.78814
1.59476
1.07662
-0.329644
-3.10841
-4.65812
-5.29359
-4.14968
-2.74164
-1.8425
-1.10465
-0.694112
-0.391485
-0.207131
-0.146573
-0.0496322
1.87584
1.83835
1.79677
1.72373
1.58666
1.32606
0.747186
-0.401075
-2.61239
-3.85911
-4.44733
-3.63028
-2.63472
-1.82331
-1.1882
-0.790019
-0.474674
-0.266257
-0.17206
-0.073811
1.78099
1.74558
1.6853
1.58438
1.40749
1.10139
0.512401
-0.492547
-2.2278
-3.28513
-3.79598
-3.32352
-2.50326
-1.78147
-1.21921
-0.84986
-0.536656
-0.324889
-0.194051
-0.0911196
1.69107
1.65628
1.58029
1.45644
1.24985
0.916224
0.335939
-0.548487
-1.92982
-2.82678
-3.28881
-2.96834
-2.35198
-1.74923
-1.24496
-0.899319
-0.590712
-0.371369
-0.211595
-0.107069
1.60738
1.5725
1.48365
1.34153
1.11402
0.765232
0.205258
-0.581694
-1.7027
-2.4731
-2.87913
-2.7028
-2.22239
-1.72012
-1.25685
-0.9295
-0.628555
-0.409127
-0.226638
-0.120171
1.53094
1.49558
1.39648
1.24027
0.998637
0.643324
0.108324
-0.598818
-1.52904
-2.19136
-2.56208
-2.4606
-2.08664
-1.67305
-1.25645
-0.95045
-0.658388
-0.44061
-0.238692
-0.131219
1.46275
1.42649
1.31958
1.15286
0.902488
0.545542
0.0376115
-0.605117
-1.39017
-1.97274
-2.30643
-2.27113
-1.98005
-1.63121
-1.25381
-0.965916
-0.679721
-0.465294
-0.248184
-0.140392
1.40331
1.36604
1.25334
1.07907
0.823819
0.468557
-0.0139973
-0.60429
-1.28171
-1.79901
-2.1052
-2.10807
-1.88524
-1.58429
-1.24276
-0.973094
-0.693631
-0.484438
-0.25538
-0.147783
1.35313
1.31491
1.19785
1.01838
0.760773
0.409721
-0.0514841
-0.600424
-1.1964
-1.66855
-1.94706
-1.97541
-1.80782
-1.54533
-1.23364
-0.977912
-0.704738
-0.499649
-0.261139
-0.153822
1.31251
1.2735
1.15327
0.970033
0.711363
0.364591
-0.0781206
-0.596659
-1.13081
-1.56873
-1.82481
-1.87058
-1.74638
-1.51101
-1.223
-0.977802
-0.710595
-0.510124
-0.264858
-0.158253
1.28179
1.24225
1.11982
0.933805
0.674441
0.331059
-0.0971468
-0.591242
-1.08778
-1.49056
-1.73273
-1.80214
-1.70201
-1.48639
-1.21689
-0.979101
-0.715322
-0.518332
-0.267978
-0.161762
1.26112
1.22115
1.0974
0.909732
0.650056
0.309303
-0.108701
-0.587376
-1.05806
-1.44581
-1.68324
-1.74394
-1.67054
-1.4692
-1.21233
-0.979799
-0.717349
-0.522958
-0.269504
-0.163859
1.25078
1.21025
1.08595
0.89761
0.637661
0.297969
-0.115132
-0.587217
-1.04245
-1.42457
-1.6557
-1.71581
-1.65901
-1.46098
-1.21049
-0.980838
-0.718798
-0.525678
-0.27055
-0.165161
2.78877
2.19317
2.41261
2.42905
2.61292
3.0365
2.41653
2.18888
2.30144
2.35691
2.53902
2.88983
3.20858
3.63372
-0.720813
-0.405086
-0.262898
0.277465
0.30346
0.0538226
2.2228
2.1189
2.17384
2.24043
2.34646
2.51217
2.51719
2.10899
-2.28424
-0.786995
-0.392285
-0.146092
0.0621319
0.085584
0.0709598
2.12397
2.04303
2.07156
2.09641
2.12693
2.11205
1.83449
0.928779
-3.57948
-6.14618
-3.61437
-1.87435
-0.798029
-0.468211
-0.19427
-0.0339481
-0.0747464
0.00717439
2.02804
1.96404
1.963
1.95161
1.90871
1.76974
1.27041
-0.18065
-3.34519
-5.39194
-6.98081
-5.43731
-3.41103
-2.00658
-0.982867
-0.592247
-0.290953
-0.10984
-0.12019
-0.0245978
1.93353
1.87976
1.85514
1.80806
1.70568
1.47411
0.912404
-0.487793
-3.19965
-4.72141
-5.42354
-4.50297
-3.04638
-1.97305
-1.11626
-0.699075
-0.39265
-0.203404
-0.143202
-0.0479386
1.84101
1.79373
1.74788
1.66949
1.51873
1.23382
0.629763
-0.524884
-2.70158
-3.93119
-4.55538
-3.86231
-2.84379
-1.94596
-1.20969
-0.790425
-0.475905
-0.264218
-0.169712
-0.0726244
1.75196
1.70831
1.64467
1.53971
1.35313
1.03234
0.42825
-0.586283
-2.30826
-3.35569
-3.88732
-3.46555
-2.64146
-1.89463
-1.25692
-0.851264
-0.537203
-0.323863
-0.192533
-0.0902949
1.66722
1.62562
1.54709
1.42034
1.20703
0.864711
0.274683
-0.618545
-1.99691
-2.88898
-3.36135
-3.06258
-2.44605
-1.83884
-1.28585
-0.902067
-0.59093
-0.371087
-0.210761
-0.106527
1.58803
1.54755
1.45686
1.31278
1.08076
0.726826
0.160778
-0.633268
-1.75567
-2.52361
-2.93571
-2.77124
-2.28665
-1.78588
-1.293
-0.933334
-0.628651
-0.409175
-0.226249
-0.119838
1.51534
1.4755
1.3751
1.21764
0.973081
0.614811
0.0760257
-0.636868
-1.56958
-2.23066
-2.60551
-2.511
-2.13072
-1.71971
-1.28624
-0.95474
-0.658479
-0.440807
-0.238603
-0.131035
1.45026
1.41055
1.30269
1.1352
0.88292
0.524422
0.0140458
-0.63312
-1.42075
-2.00269
-2.3386
-2.30211
-2.01044
-1.66586
-1.27784
-0.969991
-0.679891
-0.465514
-0.248237
-0.140296
1.39343
1.35351
1.24016
1.06544
0.808923
0.453134
-0.0310059
-0.624632
-1.30445
-1.82154
-2.1288
-2.12887
-1.90565
-1.61086
-1.26235
-0.976858
-0.693906
-0.484635
-0.25552
-0.147747
1.34536
1.30518
1.18777
1.00808
0.749642
0.398359
-0.0635913
-0.615071
-1.21316
-1.68543
-1.96454
-1.99085
-1.82281
-1.56588
-1.25041
-0.982957
-0.705302
-0.499883
-0.261321
-0.153825
1.30647
1.26601
1.14565
0.962469
0.703403
0.356372
-0.0867357
-0.607249
-1.14316
-1.58145
-1.838
-1.88242
-1.75793
-1.52694
-1.23856
-0.984358
-0.711493
-0.510379
-0.265059
-0.158275
1.27713
1.23648
1.11406
0.928358
0.66894
0.325407
-0.103262
-0.598953
-1.09697
-1.50021
-1.74276
-1.8114
-1.71093
-1.49836
-1.2295
-0.985683
-0.716459
-0.518611
-0.268182
-0.161799
1.25755
1.21675
1.09304
0.90581
0.646257
0.305434
-0.113118
-0.593131
-1.06502
-1.45322
-1.69092
-1.75113
-1.67731
-1.47787
-1.22166
-0.98516
-0.718508
-0.523242
-0.269703
-0.163901
1.24787
1.2068
1.08249
0.894562
0.634804
0.295005
-0.118649
-0.591927
-1.04809
-1.43061
-1.66183
-1.72171
-1.66439
-1.46779
-1.21809
-0.985462
-0.719914
-0.525923
-0.27072
-0.165202
2.7597
2.1817
2.39634
2.40293
2.58229
2.99754
2.39606
2.17431
2.28827
2.33536
2.5113
2.838
3.18219
3.66977
-0.733468
-0.421121
-0.270861
0.275634
0.302673
0.0537275
2.21975
2.12204
2.17797
2.24149
2.34653
2.51614
2.4794
2.10491
-2.26937
-0.794271
-0.406583
-0.15444
0.0582297
0.0842267
0.0702988
2.12345
2.04825
2.07868
2.10063
2.1303
2.11744
1.81072
0.914373
-3.62523
-6.1674
-3.51399
-1.87581
-0.809272
-0.484602
-0.201881
-0.0380745
-0.0771314
0.00686386
2.02699
1.96793
1.9686
1.95464
1.90945
1.76983
1.26035
-0.186936
-3.38372
-5.40088
-6.99942
-5.38645
-3.31279
-1.99391
-0.999706
-0.609928
-0.296535
-0.1125
-0.122294
-0.0248884
1.93154
1.88173
1.85841
1.80902
1.70362
1.46865
0.902591
-0.492745
-3.19948
-4.71256
-5.41372
-4.48393
-3.00685
-1.96793
-1.12453
-0.71505
-0.399187
-0.204757
-0.144332
-0.0478799
1.83838
1.7943
1.74943
1.66896
1.51493
1.22508
0.616249
-0.536061
-2.69971
-3.92254
-4.55164
-3.87442
-2.84247
-1.95824
-1.21842
-0.802093
-0.482193
-0.26541
-0.170078
-0.0724347
1.74905
1.70799
1.64509
1.53829
1.34845
1.02243
0.413433
-0.599722
-2.30994
-3.35277
-3.89146
-3.48973
-2.65399
-1.90844
-1.26643
-0.860044
-0.543235
-0.325215
-0.192622
-0.090078
1.66432
1.62478
1.54682
1.41847
1.20213
0.855068
0.26081
-0.63165
-2.00146
-2.89044
-3.36841
-3.08661
-2.46402
-1.8517
-1.29485
-0.907594
-0.595993
-0.372738
-0.210875
-0.106347
1.58529
1.54645
1.45619
1.31074
1.07604
0.718016
0.148652
-0.644967
-1.76183
-2.52744
-2.94403
-2.79066
-2.30607
-1.79835
-1.30246
-0.937487
-0.632715
-0.410853
-0.226424
-0.119705
1.51281
1.47425
1.37415
1.21551
0.9686
0.606782
0.0654813
-0.647213
-1.57636
-2.23554
-2.61384
-2.5254
-2.14803
-1.73138
-1.29605
-0.958461
-0.661719
-0.442429
-0.238896
-0.130954
1.44788
1.40915
1.30144
1.13288
0.878497
0.51723
0.00466369
-0.642334
-1.42748
-2.00787
-2.34616
-2.3134
-2.02414
-1.67604
-1.2872
-0.973579
-0.682571
-0.467032
-0.248621
-0.140268
1.39111
1.35192
1.23852
1.06273
0.804359
0.446585
-0.0392756
-0.632729
-1.31082
-1.82677
-2.13559
-2.13831
-1.9163
-1.61926
-1.27071
-0.980269
-0.696173
-0.486024
-0.255977
-0.147766
1.34309
1.30337
1.18575
1.00495
0.744972
0.392184
-0.0708352
-0.62221
-1.21916
-1.69062
-1.97076
-1.99855
-1.83134
-1.57279
-1.25742
-0.985969
-0.707089
-0.501154
-0.261828
-0.153878
1.30415
1.26394
1.1433
0.959062
0.698721
0.350589
-0.0931914
-0.613719
-1.14898
-1.58673
-1.84385
-1.88889
-1.76498
-1.53295
-1.24415
-0.987242
-0.712949
-0.511507
-0.265591
-0.158355
1.27467
1.23408
1.11136
0.924781
0.664265
0.319956
-0.109198
-0.605066
-1.10281
-1.50573
-1.74848
-1.81748
-1.71716
-1.50386
-1.23427
-0.98847
-0.717773
-0.519606
-0.268707
-0.161898
1.25486
1.21398
1.08999
0.90205
0.641622
0.300158
-0.118823
-0.599195
-1.07113
-1.45916
-1.69685
-1.75712
-1.68318
-1.48323
-1.22632
-0.987948
-0.719771
-0.524135
-0.270198
-0.164009
1.24509
1.20386
1.07926
0.890699
0.630225
0.289851
-0.124242
-0.598027
-1.05437
-1.43681
-1.66796
-1.72762
-1.67003
-1.47324
-1.22279
-0.988286
-0.721189
-0.526768
-0.271183
-0.165307
2.75924
2.19309
2.3978
2.40036
2.58268
3.00914
2.39552
2.17885
2.28987
2.33561
2.51187
2.85283
3.23539
3.78075
-0.726364
-0.42443
-0.274695
0.272781
0.300529
0.0531235
2.22123
2.12665
2.1802
2.24395
2.35435
2.5443
2.53187
2.21168
-2.26173
-0.785209
-0.407072
-0.157737
0.0535743
0.0823097
0.0696067
2.12588
2.05332
2.08361
2.10579
2.13922
2.14303
1.8531
0.972678
-3.56976
-6.1554
-3.46673
-1.88467
-0.798546
-0.482162
-0.20431
-0.043015
-0.0791916
0.00610148
2.02944
1.97304
1.97422
1.96056
1.91812
1.79022
1.29171
-0.155301
-3.38141
-5.37967
-6.98252
-5.35772
-3.25458
-1.9792
-0.991761
-0.610156
-0.297061
-0.11572
-0.12434
-0.0257234
1.93388
1.88646
1.86389
1.81468
1.71147
1.48348
0.92282
-0.47198
-3.19877
-4.70057
-5.38414
-4.44102
-2.95571
-1.94723
-1.11448
-0.716063
-0.400439
-0.207017
-0.146097
-0.0483831
1.8404
1.79841
1.75431
1.67382
1.52116
1.23495
0.628576
-0.524727
-2.69665
-3.91317
-4.53068
-3.8376
-2.79645
-1.93745
-1.21072
-0.802656
-0.483262
-0.267044
-0.171456
-0.0728266
1.7505
1.7112
1.64899
1.54198
1.35267
1.02827
0.420435
-0.592915
-2.30595
-3.34536
-3.87541
-3.46582
-2.61739
-1.88689
-1.25797
-0.860174
-0.544769
-0.326455
-0.193657
-0.0903892
1.66516
1.6271
1.54968
1.42097
1.20458
0.857957
0.264214
-0.628019
-1.99777
-2.88445
-3.35599
-3.07163
-2.43891
-1.83444
-1.2868
-0.906792
-0.597404
-0.373802
-0.211633
-0.106574
1.58555
1.54799
1.45811
1.31219
1.07712
0.718882
0.149644
-0.643609
-1.75937
-2.52313
-2.93609
-2.78142
-2.2905
-1.78524
-1.29621
-0.936665
-0.634105
-0.411789
-0.226954
-0.11986
1.51265
1.47513
1.37526
1.2161
0.968662
0.606286
0.0649598
-0.647407
-1.57531
-2.23308
-2.60946
-2.51894
-2.13912
-1.72151
-1.29144
-0.957675
-0.662987
-0.443335
-0.239329
-0.131067
1.44748
1.40948
1.30188
1.13281
0.877826
0.515983
0.00324071
-0.643531
-1.42765
-2.00687
-2.34402
-2.30996
-2.01972
-1.66907
-1.28398
-0.972919
-0.683663
-0.467902
-0.248992
-0.140347
1.39055
1.35185
1.23845
1.06221
0.80322
0.44494
-0.041164
-0.634467
-1.31179
-1.8267
-2.1349
-2.13709
-1.91439
-1.61452
-1.2686
-0.979827
-0.697086
-0.486838
-0.256322
-0.147828
1.34234
1.30299
1.1853
1.00408
0.743572
0.390263
-0.0729898
-0.624255
-1.22065
-1.69117
-1.97095
-1.99834
-1.83085
-1.56974
-1.25607
-0.98566
-0.707735
-0.501906
-0.262169
-0.153934
1.30325
1.2633
1.14255
0.957935
0.697109
0.348507
-0.0955365
-0.615994
-1.15079
-1.58778
-1.84461
-1.88924
-1.76515
-1.53122
-1.24326
-0.987023
-0.71344
-0.512206
-0.265931
-0.158408
1.27364
1.23321
1.11037
0.92343
0.662421
0.317691
-0.111711
-0.607517
-1.10486
-1.50717
-1.7496
-1.81831
-1.71776
-1.50309
-1.2338
-0.988353
-0.718183
-0.520266
-0.269046
-0.161953
1.25371
1.21292
1.0888
0.900473
0.63953
0.297633
-0.121562
-0.601859
-1.07344
-1.46096
-1.69833
-1.75833
-1.68412
-1.48316
-1.22619
-0.988002
-0.720162
-0.524773
-0.27055
-0.164071
1.24383
1.20265
1.0779
0.888921
0.627912
0.2871
-0.127192
-0.600928
-1.05694
-1.43895
-1.66982
-1.72921
-1.67126
-1.47368
-1.22296
-0.988519
-0.721633
-0.527397
-0.271545
-0.165377
2.76093
2.19519
2.39435
2.40158
2.59054
3.02953
2.39541
2.17869
2.28816
2.33757
2.51824
2.87137
3.28216
3.86583
-0.719355
-0.42313
-0.275433
0.272122
0.299679
0.0530408
2.21912
2.12444
2.17644
2.24286
2.35868
2.56
2.57256
2.2909
-2.26767
-0.774694
-0.404043
-0.158351
0.0528638
0.0825597
0.0695339
2.12332
2.05045
2.07995
2.10413
2.14102
2.15419
1.87935
1.02151
-3.53374
-6.15291
-3.45078
-1.89342
-0.79094
-0.479097
-0.203107
-0.0441359
-0.0790606
0.00582934
2.02682
1.97025
1.97067
1.95836
1.91863
1.79771
1.30799
-0.128391
-3.37101
-5.35778
-6.96981
-5.3416
-3.25109
-1.98363
-0.986535
-0.609288
-0.294834
-0.116102
-0.124285
-0.0259867
1.93166
1.88402
1.86095
1.8126
1.71162
1.48876
0.932756
-0.456161
-3.20197
-4.69427
-5.37322
-4.43734
-2.95439
-1.95213
-1.10835
-0.714429
-0.399003
-0.207361
-0.146288
-0.0484412
1.83856
1.79637
1.75197
1.67206
1.52113
1.23865
0.635446
-0.51517
-2.69903
-3.91198
-4.52657
-3.83338
-2.78871
-1.93769
-1.20724
-0.800989
-0.481764
-0.267137
-0.171691
-0.0728711
1.74894
1.70945
1.64705
1.54044
1.35246
1.03077
0.425229
-0.586789
-2.30748
-3.34546
-3.87097
-3.46115
-2.60817
-1.88302
-1.25441
-0.858738
-0.543923
-0.326468
-0.193905
-0.0904327
1.66382
1.62558
1.54802
1.41959
1.20422
0.859517
0.267371
-0.624463
-1.99871
-2.88464
-3.35163
-3.0663
-2.42997
-1.82976
-1.28403
-0.905411
-0.596719
-0.373745
-0.21186
-0.106616
1.58429
1.54663
1.45663
1.3109
1.07659
0.719688
0.151515
-0.641686
-1.76004
-2.52327
-2.93286
-2.77673
-2.2826
-1.78042
-1.29387
-0.935534
-0.63374
-0.411726
-0.227119
-0.119899
1.51142
1.47386
1.37391
1.21487
0.967973
0.606448
0.0658405
-0.646562
-1.57589
-2.23322
-2.60724
-2.51478
-2.13277
-1.71707
-1.28924
-0.956574
-0.662767
-0.443309
-0.23946
-0.131107
1.44627
1.40825
1.30061
1.13163
0.876991
0.515693
0.00337957
-0.643446
-1.42829
-2.00712
-2.34256
-2.30701
-2.01523
-1.66528
-1.28204
-0.971938
-0.68353
-0.467914
-0.249076
-0.140373
1.38936
1.35065
1.23723
1.06104
0.802256
0.444307
-0.0415347
-0.634881
-1.31255
-1.82715
-2.13412
-2.13511
-1.91139
-1.61146
-1.26702
-0.979034
-0.697019
-0.486897
-0.256381
-0.147846
1.34116
1.30182
1.18413
1.00292
0.742521
0.389361
-0.0737324
-0.625019
-1.22158
-1.69184
-1.97074
-1.99703
-1.82904
-1.56745
-1.25485
-0.985014
-0.70769
-0.502019
-0.262223
-0.153942
1.30211
1.26218
1.14143
0.956785
0.695992
0.347462
-0.0965055
-0.616991
-1.15186
-1.5886
-1.84481
-1.88858
-1.76412
-1.52961
-1.24228
-0.986516
-0.713454
-0.51236
-0.26599
-0.15841
1.27255
1.23216
1.1093
0.922323
0.661293
0.31659
-0.112772
-0.608601
-1.10596
-1.50804
-1.74999
-1.81811
-1.71726
-1.50198
-1.23301
-0.987957
-0.718223
-0.520448
-0.26912
-0.161956
1.25268
1.21192
1.08779
0.899424
0.638444
0.296534
-0.122643
-0.602936
-1.07449
-1.46179
-1.69881
-1.75833
-1.68388
-1.48235
-1.22557
-0.987682
-0.7202
-0.524965
-0.270643
-0.164077
1.24286
1.20171
1.07696
0.887909
0.626829
0.28598
-0.128305
-0.602016
-1.05795
-1.43974
-1.6703
-1.72926
-1.67109
-1.473
-1.22237
-0.988251
-0.721693
-0.5276
-0.271649
-0.165385
2.76036
2.19421
2.39292
2.40308
2.59901
3.04483
2.39436
2.17747
2.28791
2.34056
2.52519
2.8846
3.3059
3.9036
-0.714427
-0.420478
-0.274587
0.272455
0.299607
0.0529937
2.21764
2.12336
2.17583
2.24469
2.3642
2.56966
2.59447
2.32371
-2.27675
-0.769885
-0.399988
-0.157068
0.0529363
0.0828772
0.0694066
2.12158
2.04892
2.07896
2.10526
2.14455
2.16194
1.89411
1.04887
-3.5279
-6.15585
-3.44753
-1.89709
-0.789703
-0.477445
-0.200368
-0.0443204
-0.0789982
0.00563459
2.02467
1.96841
1.96897
1.95832
1.92066
1.80313
1.31748
-0.107835
-3.35978
-5.35084
-6.96863
-5.3347
-3.25258
-1.98943
-0.986483
-0.610708
-0.292641
-0.115647
-0.124103
-0.0261256
1.92944
1.88197
1.859
1.81195
1.71262
1.49248
0.939005
-0.442731
-3.20336
-4.69242
-5.37039
-4.43827
-2.95958
-1.95934
-1.10745
-0.71522
-0.397911
-0.207168
-0.146194
-0.0484122
1.83638
1.79427
1.74995
1.67101
1.52139
1.24107
0.639695
-0.506427
-2.69907
-3.91258
-4.52804
-3.83634
-2.79168
-1.94221
-1.20806
-0.801938
-0.480911
-0.266878
-0.171459
-0.0727871
1.74683
1.7074
1.64506
1.53916
1.35226
1.03226
0.428024
-0.581058
-2.30783
-3.34645
-3.87084
-3.46477
-2.6111
-1.8871
-1.25515
-0.859204
-0.543616
-0.326338
-0.193706
-0.0903242
1.66185
1.62365
1.54615
1.41824
1.20375
0.860356
0.269158
-0.621036
-1.99943
-2.88595
-3.35168
-3.06906
-2.43216
-1.83354
-1.28544
-0.905598
-0.596426
-0.37357
-0.211715
-0.106516
1.5825
1.54486
1.45491
1.30957
1.07598
0.72007
0.152602
-0.639727
-1.76087
-2.52466
-2.93336
-2.77902
-2.2843
-1.78319
-1.29513
-0.935708
-0.633635
-0.41157
-0.226992
-0.119812
1.50982
1.47224
1.37232
1.21359
0.967274
0.60647
0.0664061
-0.645562
-1.57671
-2.23451
-2.60781
-2.51617
-2.13386
-1.71897
-1.29022
-0.956635
-0.662693
-0.443172
-0.23937
-0.131048
1.44481
1.40676
1.29915
1.13042
0.876233
0.515476
0.00352938
-0.643089
-1.42911
-2.00827
-2.34311
-2.30798
-2.01599
-1.66653
-1.28283
-0.972
-0.683507
-0.467807
-0.249004
-0.14033
1.38805
1.34928
1.23589
1.05989
0.801449
0.4439
-0.0416777
-0.634937
-1.31335
-1.8282
-2.13473
-2.13579
-1.91194
-1.61218
-1.26761
-0.979138
-0.697067
-0.486838
-0.256328
-0.147816
1.33994
1.30056
1.18289
1.00182
0.741685
0.38879
-0.0741082
-0.625352
-1.22238
-1.69281
-1.97142
-1.99743
-1.82949
-1.56787
-1.25527
-0.985132
-0.707756
-0.501983
-0.262185
-0.153917
1.30096
1.26101
1.14028
0.955736
0.695133
0.346794
-0.0970419
-0.617512
-1.15268
-1.58952
-1.84552
-1.88891
-1.76449
-1.52985
-1.24256
-0.986672
-0.713567
-0.512349
-0.265955
-0.158386
1.27145
1.23104
1.10822
0.92132
0.660424
0.31586
-0.113407
-0.60923
-1.10678
-1.50892
-1.75067
-1.81845
-1.71762
-1.50213
-1.23323
-0.988131
-0.718351
-0.520465
-0.269082
-0.16193
1.25163
1.21084
1.08676
0.898468
0.637596
0.295788
-0.123318
-0.603611
-1.07529
-1.46261
-1.69946
-1.75863
-1.68418
-1.48244
-1.22574
-0.987842
-0.720319
-0.524992
-0.270605
-0.164051
1.24184
1.20068
1.07597
0.886992
0.626003
0.285244
-0.12898
-0.602704
-1.05874
-1.44051
-1.67091
-1.72953
-1.67133
-1.47301
-1.22247
-0.988377
-0.721812
-0.52764
-0.271621
-0.165362
2.76
2.19429
2.39309
2.40489
2.60526
3.0541
2.39409
2.17746
2.28949
2.34408
2.53082
2.89265
3.31752
3.91644
-0.710244
-0.417552
-0.273151
0.273035
0.300096
0.0529799
2.21771
2.12377
2.17736
2.24804
2.36919
2.57577
2.60648
2.32946
-2.28067
-0.766328
-0.396757
-0.155845
0.0531647
0.0831862
0.0693183
2.12158
2.04945
2.08047
2.10831
2.14897
2.16859
1.90425
1.05995
-3.5297
-6.16196
-3.44345
-1.89815
-0.79135
-0.4763
-0.197539
-0.0441662
-0.0790152
0.00538055
2.02442
1.96878
1.97
1.96063
1.92435
1.8091
1.32563
-0.0953625
-3.34482
-5.35439
-6.97131
-5.33262
-3.25141
-1.99178
-0.986742
-0.612059
-0.290769
-0.115039
-0.123939
-0.0263085
1.92906
1.88209
1.85971
1.81379
1.71559
1.4975
0.944988
-0.432664
-3.20035
-4.69456
-5.36876
-4.43567
-2.9602
-1.96157
-1.10647
-0.715865
-0.39681
-0.206831
-0.146146
-0.0484429
1.8358
1.79415
1.75034
1.67231
1.5236
1.24498
0.644135
-0.498818
-2.69565
-3.91386
-4.52877
-3.83558
-2.7915
-1.94309
-1.20802
-0.803055
-0.480247
-0.266589
-0.171261
-0.072729
1.74611
1.70709
1.64516
1.53998
1.35382
1.03513
0.43126
-0.575444
-2.30588
-3.34687
-3.86986
-3.46529
-2.61177
-1.88876
-1.25498
-0.859762
-0.543531
-0.326273
-0.193506
-0.0902246
1.66105
1.62323
1.54605
1.4187
1.20481
0.862373
0.271467
-0.617122
-1.99813
-2.8862
-3.35144
-3.07016
-2.43282
-1.83518
-1.28585
-0.906039
-0.596429
-0.373465
-0.211542
-0.106419
1.58166
1.54435
1.45465
1.30974
1.07662
0.721421
0.154211
-0.637027
-1.76
-2.52491
-2.93344
-2.78074
-2.28508
-1.78461
-1.29557
-0.936094
-0.633837
-0.411542
-0.22687
-0.119727
1.50895
1.47167
1.37195
1.21354
0.967585
0.607303
0.0674718
-0.643786
-1.57619
-2.23484
-2.60803
-2.51754
-2.1346
-1.72023
-1.29078
-0.956935
-0.662902
-0.443152
-0.239281
-0.130983
1.44396
1.40614
1.2987
1.1302
0.876304
0.51594
0.00417831
-0.642003
-1.42888
-2.00866
-2.34347
-2.3092
-2.01686
-1.66766
-1.28344
-0.972306
-0.683731
-0.467798
-0.248933
-0.140275
1.3872
1.34864
1.23538
1.05956
0.801335
0.444088
-0.041335
-0.634329
-1.31332
-1.82862
-2.13522
-2.13678
-1.91275
-1.61309
-1.26815
-0.979439
-0.697303
-0.486842
-0.256278
-0.14778
1.33913
1.29989
1.18233
1.0014
0.741443
0.388772
-0.0740031
-0.625086
-1.22251
-1.69326
-1.97197
-1.99818
-1.83025
-1.56861
-1.2558
-0.985423
-0.707954
-0.501996
-0.262146
-0.153892
1.30018
1.26032
1.13969
0.955258
0.694791
0.346631
-0.097104
-0.617486
-1.15292
-1.59001
-1.84609
-1.88951
-1.76516
-1.53044
-1.24306
-0.986964
-0.713774
-0.512377
-0.265917
-0.158371
1.2707
1.23034
1.10759
0.920798
0.660012
0.315584
-0.113595
-0.609368
-1.1071
-1.50942
-1.75123
-1.81898
-1.71823
-1.50263
-1.23369
-0.988419
-0.71855
-0.520506
-0.269057
-0.161924
1.25089
1.21012
1.0861
0.897907
0.637145
0.295457
-0.123575
-0.603843
-1.07567
-1.46313
-1.70004
-1.75912
-1.68473
-1.48287
-1.22616
-0.988129
-0.720505
-0.525033
-0.270586
-0.164048
1.24111
1.19994
1.0753
0.88641
0.625525
0.284878
-0.129269
-0.602972
-1.05915
-1.44104
-1.67149
-1.72997
-1.67184
-1.4734
-1.22285
-0.98865
-0.721983
-0.527679
-0.271601
-0.165358
2.7604
2.19532
2.39465
2.40559
2.60854
3.05968
2.39455
2.17824
2.29163
2.34659
2.53433
2.89693
3.3221
3.91772
-0.707413
-0.414213
-0.270971
0.273983
0.300834
0.0530055
2.2184
2.12443
2.17895
2.25045
2.37205
2.57849
2.6117
2.32277
-2.28237
-0.765648
-0.393435
-0.153403
0.0537953
0.0835889
0.0692315
2.12221
2.05027
2.08198
2.11052
2.15173
2.17239
1.90989
1.06272
-3.53569
-6.16604
-3.4379
-1.89832
-0.791286
-0.474063
-0.194275
-0.043383
-0.0786587
0.00535183
2.0249
1.96956
1.97126
1.96262
1.92696
1.81282
1.33077
-0.0911427
-3.33377
-5.35983
-6.97265
-5.33201
-3.25202
-1.99303
-0.985554
-0.612097
-0.288793
-0.114107
-0.123457
-0.0261899
1.92949
1.88281
1.86087
1.81568
1.718
1.50101
0.949027
-0.427928
-3.1935
-4.6987
-5.36805
-4.43294
-2.96103
-1.96197
-1.10466
-0.715583
-0.395309
-0.206124
-0.145862
-0.0483598
1.83605
1.79479
1.75133
1.67394
1.5257
1.24812
0.647492
-0.494319
-2.69101
-3.91578
-4.52921
-3.83417
-2.79102
-1.9424
-1.20692
-0.803376
-0.479239
-0.265969
-0.170902
-0.0726414
1.74627
1.70758
1.64596
1.54133
1.3556
1.03783
0.433976
-0.57147
-2.30286
-3.34751
-3.86859
-3.46443
-2.61112
-1.88866
-1.25398
-0.859583
-0.542951
-0.325948
-0.193216
-0.0901359
1.66106
1.62357
1.54667
1.41978
1.20627
0.864587
0.273644
-0.613917
-1.99582
-2.88623
-3.35085
-3.06966
-2.4318
-1.83477
-1.28527
-0.905969
-0.596049
-0.373139
-0.211279
-0.106337
1.58155
1.54456
1.4551
1.31055
1.07776
0.723163
0.155933
-0.634514
-1.75827
-2.52467
-2.93278
-2.78078
-2.28421
-1.78423
-1.29506
-0.93601
-0.633717
-0.411342
-0.226667
-0.119646
1.50875
1.47177
1.37225
1.21412
0.968449
0.608613
0.0688062
-0.641902
-1.57493
-2.23455
-2.60749
-2.51753
-2.13382
-1.71992
-1.29047
-0.956864
-0.662855
-0.442988
-0.239124
-0.130924
1.44372
1.40613
1.29886
1.13059
0.876927
0.516903
0.00519379
-0.640626
-1.42798
-2.00839
-2.34311
-2.30935
-2.01644
-1.66747
-1.28327
-0.972288
-0.683775
-0.467681
-0.24881
-0.140228
1.38692
1.34856
1.23543
1.05979
0.801759
0.444767
-0.0405796
-0.633331
-1.31268
-1.82844
-2.13506
-2.13696
-1.91253
-1.61296
-1.26807
-0.97945
-0.697391
-0.486769
-0.256181
-0.147747
1.33882
1.29974
1.18229
1.00151
0.741707
0.389226
-0.0734667
-0.624389
-1.22208
-1.69316
-1.97193
-1.99833
-1.83023
-1.56857
-1.25582
-0.985465
-0.708047
-0.501947
-0.262071
-0.15387
1.29984
1.2601
1.13957
0.95527
0.694935
0.346929
-0.0967315
-0.617013
-1.15265
-1.58999
-1.84613
-1.88968
-1.76524
-1.53048
-1.24312
-0.987031
-0.713891
-0.512355
-0.265856
-0.158355
1.27033
1.23007
1.10742
0.920736
0.660068
0.315762
-0.113348
-0.609052
-1.10694
-1.50944
-1.75134
-1.81916
-1.7184
-1.50273
-1.23378
-0.988503
-0.718652
-0.520487
-0.268999
-0.161911
1.25052
1.20981
1.08589
0.897795
0.637141
0.295555
-0.123416
-0.603628
-1.07558
-1.46319
-1.70022
-1.7593
-1.68494
-1.48301
-1.22629
-0.988231
-0.720601
-0.525016
-0.270534
-0.164037
1.24074
1.19961
1.07506
0.886269
0.625485
0.284931
-0.12916
-0.602817
-1.05908
-1.44112
-1.6717
-1.73017
-1.67207
-1.47357
-1.223
-0.988759
-0.72208
-0.527671
-0.271558
-0.165351
2.76099
2.19608
2.3958
2.40523
2.60989
3.06236
2.39507
2.17895
2.29317
2.34788
2.53595
2.89878
3.32373
3.91546
-0.706567
-0.410016
-0.26867
0.274831
0.301467
0.0529671
2.21891
2.12468
2.18012
2.25173
2.37323
2.57917
2.61351
2.3147
-2.28262
-0.768193
-0.388684
-0.150947
0.0544954
0.0838063
0.0690514
2.12261
2.05071
2.08288
2.11165
2.15301
2.17387
1.91219
1.06219
-3.54143
-6.16459
-3.43553
-1.89666
-0.792819
-0.473209
-0.191499
-0.0425163
-0.0782376
0.00527425
2.02517
1.96995
1.97195
1.96364
1.9282
1.81439
1.33345
-0.0892362
-3.32998
-5.36288
-6.97177
-5.3313
-3.25409
-1.99298
-0.984767
-0.612347
-0.287227
-0.113092
-0.122876
-0.0261021
1.92974
1.88319
1.86153
1.81669
1.71918
1.50272
0.951418
-0.426639
-3.18635
-4.70237
-5.36854
-4.43161
-2.96289
-1.96178
-1.10332
-0.715329
-0.393959
-0.2053
-0.145456
-0.0483146
1.83625
1.79516
1.75191
1.67485
1.52678
1.24977
0.649546
-0.492642
-2.68674
-3.91725
-4.53005
-3.83397
-2.79194
-1.94181
-1.20591
-0.803496
-0.478322
-0.265255
-0.170407
-0.0725557
1.74643
1.70793
1.64648
1.54215
1.35659
1.03937
0.435703
-0.569664
-2.3
-3.34833
-3.86811
-3.46429
-2.61146
-1.88868
-1.25314
-0.85921
-0.542257
-0.325503
-0.192824
-0.0900433
1.6612
1.62388
1.54713
1.42051
1.20716
0.865983
0.275102
-0.612234
-1.99367
-2.88654
-3.35088
-3.06964
-2.43166
-1.83449
-1.28463
-0.905767
-0.595579
-0.372692
-0.210933
-0.106256
1.58164
1.54483
1.45549
1.31118
1.07855
0.724397
0.157176
-0.632982
-1.75668
-2.52467
-2.9324
-2.78097
-2.28397
-1.78404
-1.29446
-0.935736
-0.633412
-0.411021
-0.226405
-0.119575
1.5088
1.47198
1.37257
1.21464
0.969135
0.609672
0.0698646
-0.640575
-1.57369
-2.23437
-2.6071
-2.51755
-2.13342
-1.71971
-1.29004
-0.956609
-0.662609
-0.442699
-0.238898
-0.130862
1.44373
1.40626
1.2991
1.13101
0.877508
0.517792
0.00609053
-0.639511
-1.427
-2.00813
-2.34274
-2.3094
-2.01612
-1.66728
-1.2829
-0.972068
-0.683628
-0.46746
-0.248626
-0.140171
1.38689
1.34862
1.2356
1.06012
0.802237
0.445498
-0.0398347
-0.632413
-1.3119
-1.82815
-2.13475
-2.13694
-1.91222
-1.61272
-1.26776
-0.979264
-0.697299
-0.486593
-0.25603
-0.147701
1.33876
1.29974
1.1824
1.00175
0.742099
0.389816
-0.0728519
-0.623649
-1.22147
-1.69288
-1.97168
-1.99827
-1.82999
-1.56837
-1.2556
-0.985313
-0.707972
-0.5018
-0.261937
-0.153829
1.29978
1.26007
1.13963
0.95545
0.695246
0.347403
-0.0962182
-0.616408
-1.15215
-1.58975
-1.84594
-1.88963
-1.76507
-1.53029
-1.24293
-0.986902
-0.713836
-0.512231
-0.265737