/*--------------------------------*- C++ -*----------------------------------*\
  =========                 |
  \\      /  F ield         | OpenFOAM: The Open Source CFD Toolbox
   \\    /   O peration     | Website:  https://openfoam.org
    \\  /    A nd           | Version:  10
     \\/     M anipulation  |
\*---------------------------------------------------------------------------*/
FoamFile
{
    format      ascii;
    class       volVectorField;
    location    "2000";
    object      U;
}
// * * * * * * * * * * * * * * * * * * * * * * * * * * * * * * * * * * * * * //

dimensions      [0 1 -1 0 0 0 0];

internalField   nonuniform List<vector> 
52338
(
(3.60749 0.0733926 20.2938)
(3.71601 0.0710306 20.0785)
(3.57555 -0.00118425 19.6268)
(3.29985 0.106273 18.1866)
(2.96965 0.142653 16.6407)
(2.5444 0.145693 15.1847)
(3.73433 0.0434808 21.1197)
(3.78026 0.0722814 21.0746)
(3.74439 0.0997843 21.0438)
(3.71921 0.166858 20.9766)
(3.64622 0.233604 20.8226)
(3.49932 0.369887 20.5259)
(3.1066 0.582569 19.3463)
(2.12488 0.916253 15.8495)
(0.43989 -0.0893766 11.7048)
(1.10469 -0.129973 13.033)
(1.61707 -0.203828 14.2155)
(2.01528 -0.129398 15.3825)
(2.18932 -0.0176675 15.3618)
(2.50924 -0.173906 16.3265)
(3.84525 0.0408391 21.7583)
(3.8524 0.0781218 21.7412)
(3.83705 0.135203 21.7076)
(3.81008 0.203446 21.654)
(3.75991 0.308143 21.5776)
(3.67665 0.49736 21.4216)
(3.57017 0.889172 21.1104)
(3.27619 1.39176 19.416)
(0.492567 -0.174718 10.0952)
(2.35727 -0.397329 16.0529)
(2.77748 -0.343258 17.231)
(2.99184 -0.299705 17.8547)
(3.39553 -0.236489 18.8989)
(3.33985 -0.173212 18.6541)
(3.52803 -0.18832 19.2507)
(3.91171 0.036921 22.1492)
(3.91622 0.0814231 22.1329)
(3.90711 0.139739 22.1047)
(3.89113 0.215926 22.0611)
(3.8655 0.326724 21.9949)
(3.83282 0.51187 21.8814)
(3.85559 0.85511 21.6841)
(3.87425 1.30294 21.156)
(4.57281 1.85873 19.3641)
(4.41544 0.624241 15.8361)
(3.4304 -0.414991 15.8212)
(3.81863 -0.612322 18.2776)
(4.13689 -0.464329 20.045)
(4.11928 -0.381566 20.3675)
(4.09805 -0.302248 20.5605)
(4.09244 -0.218218 20.6942)
(4.09467 -0.221329 20.7493)
(4.08609 -0.186104 20.8283)
(3.96752 0.0340845 22.4763)
(3.97247 0.0824152 22.4624)
(3.96982 0.143181 22.4388)
(3.96582 0.221093 22.4026)
(3.96195 0.331916 22.3464)
(3.97441 0.499518 22.2563)
(4.04792 0.784172 22.1081)
(4.38513 1.08927 21.8638)
(4.88498 1.18724 21.4116)
(5.29629 0.704957 20.7659)
(5.55764 0.209071 20.1139)
(5.1712 -0.398515 20.1592)
(4.91151 -0.47379 20.5901)
(4.66481 -0.493665 21.2073)
(4.53036 -0.420134 21.4693)
(4.4571 -0.348075 21.6091)
(4.40448 -0.289831 21.694)
(4.37883 -0.226307 21.7579)
(4.37477 -0.207013 21.7938)
(4.35031 -0.181584 21.8384)
(4.0159 0.0312666 22.7571)
(4.02153 0.0816668 22.7453)
(4.02481 0.142276 22.7256)
(4.03128 0.219195 22.695)
(4.04637 0.32404 22.6487)
(4.08648 0.473681 22.5738)
(4.19581 0.68334 22.4682)
(4.51083 0.942061 22.2935)
(5.00186 0.801753 22.0957)
(5.30642 0.548306 21.9292)
(5.40259 0.063771 21.837)
(5.24504 -0.219354 21.7877)
(4.99159 -0.391316 21.8815)
(4.79952 -0.417224 22.0271)
(4.65674 -0.37689 22.1369)
(4.57058 -0.32291 22.2132)
(4.51467 -0.273893 22.2654)
(4.4759 -0.211724 22.3174)
(4.46528 -0.199301 22.3461)
(4.43555 -0.177891 22.393)
(4.05851 0.0289801 23.003)
(4.06503 0.0794411 22.9931)
(4.0735 0.138638 22.9765)
(4.08909 0.21225 22.9508)
(4.11758 0.308817 22.9126)
(4.17809 0.437173 22.8524)
(4.29562 0.599139 22.7715)
(4.57652 0.76754 22.6544)
(4.95645 0.674741 22.5211)
(5.22005 0.444179 22.4115)
(5.31365 0.096467 22.3566)
(5.18467 -0.210146 22.3382)
(5.01829 -0.326812 22.3869)
(4.84699 -0.356482 22.4586)
(4.71416 -0.328129 22.5347)
(4.62408 -0.288085 22.5945)
(4.56601 -0.250699 22.6358)
(4.5178 -0.203686 22.6802)
(4.50448 -0.190287 22.7028)
(4.46635 -0.170163 22.7443)
(4.0966 0.0266908 23.2217)
(4.1041 0.0759161 23.2135)
(4.11701 0.132383 23.1996)
(4.13991 0.201209 23.178)
(4.17846 0.287727 23.1467)
(4.25049 0.397256 23.098)
(4.37219 0.519632 23.037)
(4.61238 0.63867 22.9527)
(4.92255 0.562821 22.8603)
(5.13852 0.382542 22.7866)
(5.22807 0.0919125 22.7468)
(5.15095 -0.128793 22.7298)
(5.01057 -0.246814 22.7629)
(4.86147 -0.293484 22.8039)
(4.74661 -0.284213 22.8606)
(4.65842 -0.257384 22.9086)
(4.6025 -0.229405 22.9415)
(4.54931 -0.189024 22.9771)
(4.53216 -0.177363 22.9952)
(4.4865 -0.160646 23.0293)
(4.131 0.0244906 23.4188)
(4.13945 0.0713096 23.4119)
(4.15608 0.124066 23.4003)
(4.18473 0.187097 23.3823)
(4.23064 0.263426 23.3566)
(4.30873 0.355481 23.3175)
(4.43048 0.449537 23.2702)
(4.63661 0.531639 23.2088)
(4.89028 0.469144 23.1435)
(5.07379 0.318678 23.0912)
(5.15461 0.0987095 23.0628)
(5.09903 -0.101976 23.0485)
(4.99493 -0.205003 23.0682)
(4.87176 -0.250735 23.0985)
(4.77255 -0.248923 23.1392)
(4.68662 -0.228531 23.1762)
(4.63143 -0.206554 23.2013)
(4.57413 -0.174385 23.2294)
(4.55422 -0.164713 23.244)
(4.50246 -0.149855 23.2719)
(4.16236 0.0222047 23.5981)
(4.17165 0.0657274 23.5923)
(4.19131 0.114062 23.5827)
(4.22435 0.170695 23.5678)
(4.27542 0.236965 23.5469)
(4.35631 0.313548 23.5158)
(4.47501 0.385739 23.479)
(4.65385 0.442001 23.4336)
(4.86665 0.389795 23.3855)
(5.01962 0.27043 23.3484)
(5.09556 0.0888814 23.326)
(5.06311 -0.0678868 23.3139)
(4.98096 -0.156668 23.3256)
(4.87615 -0.201897 23.3499)
(4.78901 -0.208849 23.3795)
(4.70678 -0.197479 23.4078)
(4.65359 -0.182597 23.4273)
(4.5946 -0.157217 23.4496)
(4.57259 -0.149117 23.4615)
(4.51599 -0.136687 23.4841)
(4.19121 0.0199171 23.7624)
(4.20122 0.0593897 23.7577)
(4.22326 0.102753 23.7498)
(4.25955 0.152662 23.7377)
(4.31405 0.209353 23.7207)
(4.39587 0.27218 23.6967)
(4.50963 0.327659 23.6679)
(4.66752 0.365762 23.6339)
(4.84629 0.323247 23.5983)
(4.9801 0.22433 23.5707)
(5.04807 0.0834927 23.5531)
(5.02856 -0.0479292 23.5467)
(4.9648 -0.126546 23.5521)
(4.87811 -0.169348 23.569)
(4.8022 -0.17976 23.591)
(4.72521 -0.172263 23.6128)
(4.67366 -0.161048 23.628)
(4.61345 -0.140688 23.6457)
(4.58971 -0.134075 23.6552)
(4.52901 -0.12343 23.6736)
(4.21791 0.0174865 23.9142)
(4.22856 0.052443 23.9104)
(4.25244 0.0904721 23.904)
(4.29106 0.133529 23.8944)
(4.34768 0.181172 23.8806)
(4.42897 0.231912 23.8626)
(4.5378 0.274434 23.8401)
(4.67816 0.30045 23.8144)
(4.83246 0.265093 23.7877)
(4.9488 0.186407 23.7674)
(5.01127 0.0728281 23.7534)
(5.00228 -0.0324666 23.7527)
(4.95357 -0.0975072 23.7538)
(4.88148 -0.135057 23.7643)
(4.81265 -0.147502 23.7808)
(4.74051 -0.144211 23.7973)
(4.69041 -0.137108 23.8091)
(4.6297 -0.121777 23.8229)
(4.60469 -0.11667 23.8305)
(4.5408 -0.108056 23.8452)
(4.24273 0.0149753 24.0552)
(4.25392 0.0450295 24.0522)
(4.27921 0.0774379 24.0472)
(4.31943 0.113609 24.0396)
(4.37728 0.152742 24.0289)
(4.45723 0.193309 24.0149)
(4.56103 0.225269 23.998)
(4.68795 0.242854 23.9786)
(4.82284 0.214205 23.959)
(4.92696 0.151319 23.9438)
(4.98384 0.0632366 23.9333)
(4.982 -0.0218857 23.9325)
(4.94391 -0.0757402 23.9328)
(4.88322 -0.109117 23.9402)
(4.82122 -0.121947 23.9525)
(4.75411 -0.120928 23.965)
(4.70554 -0.116135 23.9741)
(4.64492 -0.104257 23.9847)
(4.61898 -0.100194 23.9907)
(4.55265 -0.0930477 24.0023)
(4.26593 0.0123726 24.1869)
(4.27754 0.037251 24.1846)
(4.30384 0.0638622 24.1809)
(4.34517 0.0932299 24.1751)
(4.4035 0.124407 24.1668)
(4.48212 0.15608 24.1562)
(4.5814 0.17978 24.1438)
(4.69753 0.191872 24.1296)
(4.81828 0.16868 24.1154)
(4.91308 0.119875 24.1042)
(4.96513 0.0518662 24.0965)
(4.96828 -0.0150694 24.0957)
(4.93863 -0.0574098 24.0957)
(4.88718 -0.0843184 24.1009)
(4.83033 -0.0961024 24.1085)
(4.7671 -0.0964327 24.1184)
(4.71983 -0.093491 24.1256)
(4.65936 -0.0848305 24.1338)
(4.63271 -0.0818595 24.1384)
(4.56446 -0.0763702 24.1472)
(4.28769 0.00969501 24.3104)
(4.29963 0.0292055 24.3087)
(4.32665 0.0499731 24.306)
(4.36867 0.0726296 24.3018)
(4.42725 0.0963938 24.2955)
(4.50429 0.119936 24.288)
(4.60032 0.137038 24.2792)
(4.70694 0.145013 24.2693)
(4.8226 0.126938 24.2589)
(4.90055 0.0914895 24.2516)
(4.964 0.0416492 24.2462)
(4.96214 -0.0098326 24.2454)
(4.93757 -0.0422756 24.2451)
(4.89166 -0.0634858 24.2488)
(4.83943 -0.0736186 24.2527)
(4.77985 -0.0746152 24.2603)
(4.73371 -0.0728271 24.2659)
(4.6737 -0.0666026 24.272)
(4.64665 -0.0644504 24.2754)
(4.57717 -0.0602368 24.2818)
(4.30818 0.00696226 24.4267)
(4.32036 0.0209939 24.4255)
(4.34787 0.0358488 24.4237)
(4.39034 0.0519325 24.4208)
(4.44905 0.068599 24.4166)
(4.52497 0.0848782 24.4116)
(4.61783 0.096528 24.4057)
(4.71937 0.100892 24.3992)
(4.82466 0.0892261 24.3926)
(4.90259 0.0632167 24.3876)
(4.95388 0.0279433 24.384)
(4.96156 -0.00510906 24.3836)
(4.94178 -0.0284631 24.3833)
(4.90004 -0.0438009 24.3856)
(4.85122 -0.0513777 24.3882)
(4.7942 -0.0525306 24.3933)
(4.74892 -0.0514516 24.3971)
(4.68917 -0.0472791 24.4012)
(4.66176 -0.0458485 24.4035)
(4.59126 -0.0429317 24.4079)
(4.32756 0.00415785 24.5366)
(4.3399 0.0125941 24.5359)
(4.36769 0.0215221 24.5348)
(4.4104 0.0311466 24.5331)
(4.46916 0.0410233 24.5308)
(4.54425 0.0506743 24.5279)
(4.63498 0.0572962 24.5245)
(4.7331 0.0602001 24.5208)
(4.83224 0.0525738 24.5171)
(4.90988 0.0381448 24.5142)
(4.95794 0.0164467 24.512)
(4.96558 -0.00257916 24.5119)
(4.94911 -0.0164076 24.5115)
(4.91025 -0.0257312 24.5128)
(4.86378 -0.0305927 24.5144)
(4.80847 -0.0314818 24.5174)
(4.76378 -0.0309812 24.5196)
(4.70427 -0.0286418 24.5218)
(4.67667 -0.0278651 24.523)
(4.60557 -0.026133 24.5253)
(4.3458 0.00136512 24.6392)
(4.35804 0.0041603 24.6376)
(4.38581 0.00713368 24.636)
(4.42849 0.0103469 24.6344)
(4.48715 0.0135967 24.6324)
(4.56162 0.0167401 24.6304)
(4.65162 0.018753 24.6282)
(4.74645 0.0199228 24.626)
(4.84789 0.0169583 24.6239)
(4.91582 0.0123504 24.6221)
(4.97243 0.00667504 24.6206)
(4.97309 -0.00240454 24.6194)
(4.95966 -0.00578701 24.6185)
(4.92203 -0.00858627 24.6176)
(4.8765 -0.0101852 24.6165)
(4.82184 -0.0104832 24.6157)
(4.77724 -0.0102989 24.6149)
(4.71759 -0.00947128 24.614)
(4.68973 -0.0091866 24.6131)
(4.61802 -0.00857421 24.6123)
(3.60505 0.074124 20.3252)
(3.72624 0.096274 20.266)
(3.62057 0.0570469 19.9841)
(3.48893 0.127446 19.2677)
(3.02602 0.131942 17.0558)
(2.74723 0.176114 16.3578)
(3.73495 0.0459078 21.1407)
(3.781 0.0792291 21.1181)
(3.75009 0.10676 21.0918)
(3.72312 0.170375 21.026)
(3.65034 0.242661 20.8837)
(3.49952 0.375851 20.6374)
(3.15281 0.637945 19.8044)
(2.20163 1.03043 16.4964)
(0.447676 -0.0896222 11.6955)
(1.10646 -0.12947 13.0362)
(1.61632 -0.20385 14.2156)
(2.01298 -0.129056 15.3737)
(2.18793 -0.0169239 15.3559)
(2.50875 -0.173732 16.3255)
(3.84579 0.0416866 21.7655)
(3.85302 0.0786665 21.7521)
(3.83817 0.13553 21.7205)
(3.81062 0.203649 21.6659)
(3.75979 0.308722 21.5916)
(3.68037 0.495323 21.4518)
(3.59864 0.873754 21.1814)
(3.39243 1.42406 19.9204)
(0.949043 -0.421345 11.8152)
(2.36327 -0.395016 16.0259)
(2.77277 -0.341845 17.2149)
(2.98883 -0.299668 17.8515)
(3.39286 -0.236519 18.8923)
(3.33826 -0.173137 18.6488)
(3.52685 -0.188156 19.2475)
(3.91209 0.0379396 22.1553)
(3.91686 0.0825738 22.1421)
(3.90798 0.140742 22.115)
(3.89168 0.216927 22.071)
(3.86545 0.328034 22.0063)
(3.83329 0.513077 21.8991)
(3.86662 0.847008 21.7143)
(3.89624 1.29285 21.2891)
(4.63767 1.85427 19.667)
(4.63219 0.644462 16.7599)
(3.50302 -0.38231 15.848)
(4.17008 -0.584028 19.4981)
(4.12536 -0.463193 20.0198)
(4.11778 -0.379404 20.3584)
(4.0987 -0.302523 20.558)
(4.09177 -0.218518 20.6912)
(4.09353 -0.221224 20.7458)
(4.08522 -0.186005 20.826)
(3.96781 0.0349231 22.4811)
(3.97292 0.0834521 22.4695)
(3.97048 0.144236 22.4468)
(3.96622 0.2222 22.4103)
(3.96185 0.333312 22.355)
(3.975 0.501286 22.2691)
(4.05071 0.785371 22.1275)
(4.38982 1.08523 21.887)
(4.88257 1.19174 21.4741)
(5.29351 0.701338 20.8845)
(5.55703 0.18292 20.3952)
(5.18145 -0.377542 20.2619)
(4.91646 -0.480427 20.9819)
(4.67986 -0.492746 21.2776)
(4.53158 -0.419273 21.4605)
(4.45656 -0.347502 21.6039)
(4.4051 -0.290255 21.6932)
(4.37877 -0.226594 21.7572)
(4.37437 -0.207023 21.7925)
(4.34996 -0.181496 21.8373)
(4.01612 0.0321127 22.7608)
(4.02186 0.0826772 22.7508)
(4.02531 0.14331 22.7317)
(4.03159 0.22031 22.701)
(4.04631 0.325437 22.6553)
(4.08694 0.475566 22.5834)
(4.19715 0.684954 22.4812)
(4.51144 0.942281 22.3075)
(5.00195 0.802187 22.1071)
(5.30474 0.547026 21.9459)
(5.39509 0.0685945 21.8615)
(5.24256 -0.211164 21.8258)
(4.99686 -0.381056 21.9149)
(4.80271 -0.416554 22.046)
(4.65856 -0.374906 22.1337)
(4.57042 -0.32174 22.2109)
(4.51507 -0.274343 22.2649)
(4.47584 -0.212116 22.3171)
(4.46506 -0.199368 22.3456)
(4.43543 -0.177855 22.3924)
(4.05869 0.0297797 23.006)
(4.06528 0.080393 22.9974)
(4.07389 0.139621 22.9813)
(4.08934 0.21329 22.9555)
(4.11758 0.310087 22.9176)
(4.17844 0.438838 22.8592)
(4.29596 0.600818 22.7802)
(4.57592 0.768359 22.6631)
(4.95604 0.675592 22.5299)
(5.21855 0.443543 22.4233)
(5.30885 0.0985147 22.3719)
(5.18257 -0.200089 22.3515)
(5.01885 -0.317217 22.4035)
(4.84846 -0.353497 22.4765)
(4.7164 -0.328283 22.5406)
(4.62456 -0.28753 22.5934)
(4.56617 -0.250824 22.6351)
(4.51778 -0.203904 22.68)
(4.50435 -0.190339 22.7026)
(4.46628 -0.170153 22.744)
(4.09674 0.0274081 23.2242)
(4.10431 0.0767521 23.2169)
(4.11733 0.133237 23.2033)
(4.14012 0.202105 23.1817)
(4.17852 0.288772 23.1505)
(4.25052 0.398497 23.1027)
(4.37207 0.521024 23.0423)
(4.61193 0.640016 22.9573)
(4.92214 0.563742 22.8663)
(5.13759 0.382971 22.7941)
(5.22509 0.0939102 22.7569)
(5.14917 -0.121567 22.7396)
(5.0096 -0.241013 22.7751)
(4.86182 -0.289603 22.8216)
(4.74877 -0.283413 22.8712)
(4.65919 -0.257143 22.9088)
(4.60251 -0.229506 22.9408)
(4.54932 -0.189221 22.9769)
(4.53211 -0.177436 22.995)
(4.48645 -0.160643 23.0291)
(4.13112 0.0251019 23.4207)
(4.13963 0.0720181 23.4146)
(4.15634 0.124781 23.4033)
(4.18491 0.187839 23.3852)
(4.23073 0.264274 23.3596)
(4.30876 0.356426 23.3211)
(4.43021 0.450531 23.2743)
(4.63619 0.532776 23.2121)
(4.88979 0.470158 23.1477)
(5.07316 0.319493 23.0962)
(5.15274 0.100557 23.07)
(5.09797 -0.0977106 23.0554)
(4.9943 -0.201504 23.0751)
(4.87182 -0.246808 23.1083)
(4.77395 -0.247249 23.1467)
(4.68748 -0.228356 23.1763)
(4.63148 -0.206631 23.2008)
(4.57414 -0.174494 23.2293)
(4.5542 -0.164763 23.2439)
(4.50244 -0.149862 23.2718)
(4.16247 0.0227177 23.5996)
(4.1718 0.0663226 23.5945)
(4.19152 0.114642 23.5851)
(4.2245 0.171291 23.5702)
(4.27551 0.237637 23.5492)
(4.35634 0.314212 23.5186)
(4.47476 0.386466 23.4821)
(4.65349 0.442896 23.4361)
(4.86624 0.390756 23.3886)
(5.01919 0.271402 23.3519)
(5.09431 0.0903141 23.3313)
(5.06202 -0.0646099 23.3211)
(4.98074 -0.154425 23.3318)
(4.87609 -0.199474 23.3549)
(4.78984 -0.207428 23.385)
(4.70761 -0.197342 23.408)
(4.65364 -0.182633 23.4269)
(4.59462 -0.157306 23.4495)
(4.5726 -0.149173 23.4614)
(4.51597 -0.136692 23.4841)
(4.19129 0.0203279 23.7636)
(4.20135 0.0598947 23.7594)
(4.22343 0.103219 23.7517)
(4.25967 0.153129 23.7395)
(4.31413 0.209866 23.7225)
(4.39587 0.272737 23.6986)
(4.50945 0.328281 23.6699)
(4.66724 0.36644 23.6357)
(4.846 0.324016 23.6007)
(4.97981 0.225175 23.5733)
(5.0473 0.084734 23.5571)
(5.02744 -0.0457541 23.553)
(4.96487 -0.1244 23.5571)
(4.87803 -0.167505 23.573)
(4.80276 -0.178302 23.5953)
(4.72584 -0.172143 23.6129)
(4.67374 -0.161091 23.6277)
(4.61347 -0.140738 23.6456)
(4.58972 -0.134109 23.6552)
(4.52901 -0.123436 23.6736)
(4.21797 0.0178295 23.9152)
(4.22867 0.0528561 23.9118)
(4.25258 0.0908385 23.9055)
(4.29115 0.133891 23.8957)
(4.34775 0.18156 23.8819)
(4.42896 0.232403 23.8637)
(4.53761 0.274942 23.8412)
(4.67803 0.300999 23.8158)
(4.83228 0.265689 23.7896)
(4.94862 0.187095 23.7694)
(5.01087 0.0738 23.7564)
(5.00201 -0.030621 23.7562)
(4.95357 -0.0962892 23.7557)
(4.88127 -0.133958 23.7673)
(4.81299 -0.146405 23.7841)
(4.74098 -0.144103 23.7973)
(4.69049 -0.137129 23.8089)
(4.62972 -0.121815 23.8228)
(4.6047 -0.1167 23.8305)
(4.5408 -0.108059 23.8452)
(4.24279 0.0152511 24.056)
(4.25401 0.0453651 24.0532)
(4.27931 0.0777331 24.0483)
(4.3195 0.113925 24.0404)
(4.37731 0.153079 24.0297)
(4.45727 0.19371 24.0156)
(4.5609 0.22574 23.9987)
(4.68779 0.243283 23.9796)
(4.82271 0.214681 23.9604)
(4.92686 0.151856 23.9453)
(4.98362 0.0639985 23.9356)
(4.98188 -0.0208489 23.9352)
(4.94394 -0.0748785 23.9344)
(4.88299 -0.108249 23.9426)
(4.82138 -0.121091 23.9549)
(4.75444 -0.120928 23.9649)
(4.70562 -0.116162 23.9739)
(4.64494 -0.10428 23.9847)
(4.619 -0.100213 23.9907)
(4.55265 -0.093051 24.0022)
(4.26597 0.0125887 24.1875)
(4.2776 0.0375166 24.1853)
(4.30392 0.0641139 24.1816)
(4.34521 0.093507 24.1756)
(4.40351 0.124709 24.1673)
(4.48208 0.156348 24.1567)
(4.58131 0.180109 24.1443)
(4.69739 0.192193 24.1303)
(4.81819 0.169048 24.1163)
(4.91301 0.120287 24.1052)
(4.96506 0.0524118 24.0982)
(4.96829 -0.014353 24.0978)
(4.93868 -0.0568592 24.0969)
(4.88698 -0.0837158 24.1027)
(4.8304 -0.0953685 24.111)
(4.76739 -0.0963884 24.1192)
(4.71993 -0.0935046 24.1255)
(4.65938 -0.0848489 24.1337)
(4.63272 -0.0818757 24.1383)
(4.56447 -0.0763713 24.1471)
(4.28772 0.00985818 24.3108)
(4.29967 0.0294028 24.3092)
(4.32671 0.0501514 24.3064)
(4.3687 0.0728324 24.3021)
(4.42725 0.0965991 24.2959)
(4.50425 0.120132 24.2884)
(4.60024 0.137268 24.2795)
(4.70683 0.145237 24.2698)
(4.82254 0.127206 24.2596)
(4.90052 0.091785 24.2523)
(4.964 0.0420429 24.2473)
(4.96222 -0.00933683 24.2468)
(4.93765 -0.0418609 24.2459)
(4.89153 -0.0630124 24.2501)
(4.83948 -0.0728726 24.2552)
(4.78025 -0.0743916 24.2618)
(4.73384 -0.0728355 24.2659)
(4.67371 -0.0666192 24.2719)
(4.64666 -0.0644591 24.2753)
(4.57718 -0.0602376 24.2818)
(4.3082 0.00707688 24.4269)
(4.32038 0.0211287 24.4257)
(4.34791 0.0359696 24.4239)
(4.39036 0.0520766 24.421)
(4.44905 0.0687583 24.4168)
(4.52492 0.0850315 24.4118)
(4.61777 0.0966833 24.4059)
(4.7193 0.10104 24.3995)
(4.82461 0.0894024 24.3929)
(4.90259 0.063429 24.3879)
(4.95387 0.0282157 24.3846)
(4.96165 -0.00478074 24.3844)
(4.94187 -0.0281565 24.3838)
(4.89998 -0.0434236 24.3864)
(4.85128 -0.0507318 24.3898)
(4.7945 -0.0522566 24.3942)
(4.74905 -0.0514607 24.3971)
(4.68919 -0.0472913 24.4012)
(4.66178 -0.0458525 24.4035)
(4.59127 -0.0429318 24.4079)
(4.32756 0.00422873 24.5367)
(4.3399 0.0126821 24.536)
(4.36771 0.0216007 24.5349)
(4.41042 0.0312407 24.5331)
(4.46915 0.0411265 24.5308)
(4.54422 0.0507752 24.5279)
(4.63493 0.0573927 24.5245)
(4.73303 0.060291 24.5209)
(4.83221 0.0526886 24.5172)
(4.9099 0.0382944 24.5143)
(4.95799 0.016624 24.5122)
(4.96569 -0.00236155 24.5124)
(4.9492 -0.0162025 24.5118)
(4.91024 -0.0255097 24.5133)
(4.86385 -0.0301699 24.5154)
(4.80872 -0.031277 24.5179)
(4.7639 -0.0309864 24.5196)
(4.7043 -0.0286469 24.5218)
(4.67668 -0.0278642 24.523)
(4.60558 -0.0261325 24.5253)
(4.34579 0.00138795 24.6393)
(4.35803 0.00419812 24.6376)
(4.38581 0.00716801 24.636)
(4.42849 0.0103793 24.6343)
(4.48713 0.0136317 24.6324)
(4.56158 0.0167743 24.6303)
(4.65157 0.0187865 24.6282)
(4.74638 0.0199553 24.626)
(4.84787 0.0170061 24.6239)
(4.91582 0.0124004 24.6221)
(4.97247 0.00673506 24.6206)
(4.97314 -0.00231947 24.6194)
(4.95971 -0.00571347 24.6185)
(4.92203 -0.0084957 24.6176)
(4.87656 -0.0100196 24.6166)
(4.82204 -0.0104021 24.6157)
(4.77736 -0.010298 24.6149)
(4.71762 -0.00947211 24.614)
(4.68974 -0.00918627 24.6131)
(4.61803 -0.0085738 24.6123)
(3.60537 0.074564 20.3307)
(3.73233 0.0947823 20.2836)
(3.62182 0.0579921 19.9998)
(3.49897 0.129402 19.341)
(3.03847 0.132648 17.121)
(2.76742 0.177517 16.4489)
(3.73552 0.0461105 21.1437)
(3.78155 0.0788851 21.1215)
(3.7504 0.106882 21.0947)
(3.72287 0.171995 21.027)
(3.65097 0.241912 20.8832)
(3.5021 0.374851 20.6398)
(3.16424 0.633015 19.8025)
(2.25649 1.03063 16.6392)
(0.450161 -0.0900338 11.6939)
(1.10921 -0.129581 13.041)
(1.61673 -0.204264 14.2205)
(2.01187 -0.129338 15.3693)
(2.18695 -0.0168494 15.3515)
(2.50852 -0.173754 16.3249)
(3.84607 0.0423628 21.7674)
(3.85331 0.0794031 21.7538)
(3.83841 0.136411 21.7226)
(3.81103 0.204386 21.6678)
(3.76077 0.309362 21.5938)
(3.68183 0.495718 21.4586)
(3.60028 0.8686 21.1883)
(3.42433 1.39237 19.9738)
(0.978518 -0.422182 11.881)
(2.35913 -0.394507 16.0147)
(2.76945 -0.341531 17.2003)
(2.98713 -0.299431 17.8508)
(3.39181 -0.236927 18.8902)
(3.33659 -0.173139 18.6435)
(3.52592 -0.188158 19.2446)
(3.91236 0.0380278 22.157)
(3.91725 0.0827596 22.1438)
(3.90822 0.140793 22.117)
(3.892 0.216929 22.0731)
(3.86638 0.327647 22.009)
(3.83442 0.511889 21.9049)
(3.86944 0.844359 21.7207)
(3.90095 1.2786 21.3036)
(4.61189 1.86953 19.6423)
(4.67646 0.644706 16.8894)
(3.44955 -0.388709 15.8609)
(4.17479 -0.583649 19.5061)
(4.11653 -0.465593 20.0092)
(4.11439 -0.378268 20.3506)
(4.09916 -0.302388 20.556)
(4.09173 -0.218891 20.6889)
(4.09276 -0.221359 20.7427)
(4.08456 -0.185927 20.8237)
(3.96804 0.0348409 22.4826)
(3.97328 0.0833403 22.4711)
(3.97068 0.143989 22.4486)
(3.96646 0.221873 22.4123)
(3.96243 0.332695 22.3577)
(3.97608 0.499546 22.2742)
(4.05209 0.783324 22.1344)
(4.38781 1.08383 21.8938)
(4.88239 1.19317 21.4757)
(5.29742 0.702098 20.8819)
(5.55681 0.171062 20.3989)
(5.19709 -0.374972 20.3423)
(4.91361 -0.480217 21.0123)
(4.67703 -0.492197 21.2777)
(4.53007 -0.41885 21.4602)
(4.4558 -0.347638 21.6001)
(4.40538 -0.290625 21.6919)
(4.37879 -0.226778 21.7563)
(4.37408 -0.206931 21.7911)
(4.34973 -0.181315 21.8359)
(4.01632 0.0320598 22.7622)
(4.02216 0.082581 22.7524)
(4.02548 0.143071 22.7334)
(4.03175 0.219986 22.7029)
(4.04664 0.324897 22.6578)
(4.08761 0.4742 22.5878)
(4.19772 0.682854 22.4868)
(4.51087 0.939526 22.3128)
(5.0013 0.803607 22.1095)
(5.30509 0.547922 21.9456)
(5.39606 0.06865 21.8654)
(5.24131 -0.216328 21.8407)
(4.99751 -0.385239 21.9307)
(4.80064 -0.419061 22.0447)
(4.6578 -0.37427 22.1343)
(4.57021 -0.320765 22.2097)
(4.51543 -0.274528 22.264)
(4.4758 -0.212364 22.3167)
(4.46487 -0.199328 22.3448)
(4.43538 -0.177741 22.3918)
(4.05886 0.029739 23.0071)
(4.06554 0.0803253 22.9988)
(4.07403 0.139433 22.9828)
(4.08945 0.213024 22.9572)
(4.11773 0.309652 22.9198)
(4.17868 0.437872 22.8626)
(4.29627 0.599291 22.7841)
(4.5757 0.766617 22.6678)
(4.9554 0.675548 22.5327)
(5.21873 0.443454 22.4245)
(5.3091 0.0969884 22.3756)
(5.18265 -0.203137 22.359)
(5.01854 -0.318657 22.4117)
(4.84699 -0.35494 22.4781)
(4.71589 -0.32832 22.5409)
(4.62467 -0.287179 22.5934)
(4.56648 -0.250903 22.6342)
(4.51778 -0.204034 22.6795)
(4.50422 -0.190321 22.7022)
(4.46625 -0.170092 22.7436)
(4.0969 0.0273944 23.2252)
(4.10453 0.0767169 23.2181)
(4.11743 0.133092 23.2047)
(4.14018 0.201901 23.1832)
(4.17857 0.288451 23.1524)
(4.25059 0.397931 23.1054)
(4.37216 0.520206 23.0454)
(4.61176 0.639019 22.9608)
(4.92179 0.563471 22.8691)
(5.13774 0.382496 22.796)
(5.22493 0.093108 22.7602)
(5.14903 -0.122553 22.7445)
(5.00949 -0.242105 22.7808)
(4.861 -0.290279 22.8246)
(4.74826 -0.283301 22.8713)
(4.65945 -0.256695 22.9093)
(4.60266 -0.229565 22.9401)
(4.54934 -0.189375 22.9765)
(4.53207 -0.177466 22.9948)
(4.48644 -0.160612 23.0288)
(4.13125 0.0251086 23.4216)
(4.13981 0.0720119 23.4157)
(4.15642 0.124681 23.4044)
(4.18493 0.18769 23.3865)
(4.23073 0.264066 23.3612)
(4.30875 0.356107 23.3231)
(4.43021 0.450109 23.2766)
(4.6361 0.532284 23.2147)
(4.88958 0.46988 23.1501)
(5.07324 0.319188 23.0982)
(5.15238 0.0999162 23.0729)
(5.0978 -0.0977272 23.0591)
(4.99464 -0.202206 23.0786)
(4.8714 -0.247219 23.1114)
(4.77357 -0.247263 23.1468)
(4.68769 -0.228046 23.1767)
(4.6316 -0.206652 23.2004)
(4.57416 -0.174583 23.229)
(4.55418 -0.164783 23.2438)
(4.50242 -0.149851 23.2716)
(4.16258 0.0227326 23.6003)
(4.17196 0.0663372 23.5954)
(4.19158 0.114568 23.586)
(4.2245 0.171176 23.5712)
(4.27548 0.237502 23.5505)
(4.3563 0.314013 23.5201)
(4.47474 0.38626 23.4838)
(4.65344 0.442636 23.438)
(4.86606 0.390583 23.3905)
(5.01922 0.271228 23.3537)
(5.09401 0.0898762 23.3336)
(5.06167 -0.0640934 23.3244)
(4.98097 -0.154921 23.3335)
(4.87612 -0.199599 23.3579)
(4.78955 -0.20758 23.385)
(4.7078 -0.197146 23.4083)
(4.65372 -0.1826 23.4267)
(4.59465 -0.157383 23.4493)
(4.5726 -0.149214 23.4613)
(4.51596 -0.136689 23.4839)
(4.19139 0.0203333 23.7643)
(4.20148 0.059924 23.7602)
(4.22348 0.103161 23.7525)
(4.25966 0.15303 23.7404)
(4.31407 0.20976 23.7234)
(4.39578 0.272622 23.6997)
(4.50946 0.328192 23.6711)
(4.66721 0.366301 23.6371)
(4.8459 0.323896 23.6022)
(4.97981 0.225093 23.5747)
(5.04715 0.0845562 23.5589)
(5.02731 -0.0452139 23.5554)
(4.96489 -0.124601 23.5583)
(4.87807 -0.16751 23.5752)
(4.80257 -0.178432 23.5954)
(4.72603 -0.172003 23.6133)
(4.67381 -0.161073 23.6276)
(4.6135 -0.14079 23.6454)
(4.58973 -0.134138 23.6551)
(4.529 -0.123439 23.6735)
(4.21804 0.0178345 23.9157)
(4.22877 0.0528802 23.9124)
(4.25261 0.0907812 23.9061)
(4.29114 0.133796 23.8964)
(4.34769 0.18147 23.8827)
(4.42889 0.232402 23.8645)
(4.53755 0.274922 23.8421)
(4.67803 0.300945 23.8168)
(4.83223 0.265645 23.7907)
(4.94863 0.187061 23.7706)
(5.01075 0.0737221 23.7578)
(5.00192 -0.0304309 23.7574)
(4.95373 -0.0961463 23.7568)
(4.88125 -0.133993 23.7688)
(4.81286 -0.146491 23.7842)
(4.74116 -0.143997 23.7976)
(4.69054 -0.137095 23.8088)
(4.62975 -0.121855 23.8227)
(4.60472 -0.116732 23.8304)
(4.5408 -0.108062 23.8452)
(4.24284 0.0152499 24.0564)
(4.25407 0.0453823 24.0537)
(4.27932 0.0776831 24.0488)
(4.31948 0.113844 24.041)
(4.37725 0.153023 24.0302)
(4.45722 0.193703 24.0162)
(4.56086 0.225797 23.9994)
(4.68777 0.243285 23.9804)
(4.82269 0.214678 23.9612)
(4.92687 0.151852 23.9462)
(4.98353 0.0639868 23.9366)
(4.98182 -0.0206924 23.9361)
(4.9441 -0.0747977 23.9351)
(4.88298 -0.108212 23.9438)
(4.82125 -0.121117 23.955)
(4.75457 -0.120847 23.9651)
(4.70568 -0.116133 23.9738)
(4.64498 -0.104304 23.9846)
(4.61902 -0.100238 23.9907)
(4.55266 -0.0930553 24.0022)
(4.26601 0.0125817 24.1878)
(4.27765 0.0375256 24.1857)
(4.30392 0.0640784 24.182)
(4.34518 0.0934578 24.176)
(4.40346 0.124696 24.1677)
(4.48202 0.156351 24.1571)
(4.58128 0.180159 24.1447)
(4.69738 0.192209 24.1308)
(4.81818 0.16905 24.1169)
(4.91302 0.120287 24.1059)
(4.965 0.0524052 24.0989)
(4.96828 -0.0141881 24.0984)
(4.93882 -0.056773 24.0974)
(4.88698 -0.0837309 24.1035)
(4.83029 -0.0953372 24.1111)
(4.76749 -0.0963098 24.1194)
(4.71997 -0.0934765 24.1256)
(4.6594 -0.0848686 24.1336)
(4.63274 -0.0818971 24.1383)
(4.56447 -0.0763742 24.1471)
(4.28774 0.00984557 24.3111)
(4.2997 0.0294012 24.3094)
(4.3267 0.0501202 24.3067)
(4.36867 0.072808 24.3024)
(4.42721 0.0965848 24.2962)
(4.50421 0.120152 24.2887)
(4.60022 0.13731 24.2798)
(4.70682 0.145247 24.2702)
(4.82253 0.127203 24.26)
(4.90053 0.0917758 24.2528)
(4.96399 0.0420456 24.2478)
(4.96222 -0.00925906 24.2473)
(4.93776 -0.0417874 24.2463)
(4.89156 -0.0630261 24.2507)
(4.83939 -0.0728139 24.2555)
(4.78025 -0.0743632 24.2619)
(4.73391 -0.0728143 24.2661)
(4.67374 -0.0666358 24.2718)
(4.64668 -0.0644728 24.2753)
(4.57719 -0.0602397 24.2817)
(4.30821 0.0070591 24.4271)
(4.3204 0.0211153 24.426)
(4.3479 0.0359409 24.4241)
(4.39033 0.052063 24.4212)
(4.44902 0.0687587 24.417)
(4.5249 0.0850487 24.412)
(4.61774 0.0967103 24.4061)
(4.71927 0.101041 24.3998)
(4.8246 0.0893879 24.3932)
(4.9026 0.0634121 24.3883)
(4.95387 0.0282141 24.385)
(4.96166 -0.0047584 24.3848)
(4.94195 -0.0281199 24.3841)
(4.90002 -0.0434374 24.3869)
(4.85124 -0.050723 24.3901)
(4.79452 -0.052221 24.3944)
(4.74912 -0.0514456 24.3972)
(4.68922 -0.0473044 24.4011)
(4.6618 -0.0458613 24.4035)
(4.59128 -0.042933 24.4079)
(4.32756 0.00421501 24.5368)
(4.33991 0.0126727 24.5362)
(4.36771 0.0215826 24.535)
(4.41039 0.0312297 24.5333)
(4.46912 0.0411314 24.5309)
(4.54419 0.0507837 24.528)
(4.6349 0.0573999 24.5247)
(4.733 0.0602771 24.5211)
(4.8322 0.0526693 24.5175)
(4.90991 0.038277 24.5146)
(4.95801 0.0166133 24.5125)
(4.96572 -0.00234426 24.5126)
(4.94927 -0.016175 24.512)
(4.91028 -0.0255224 24.5136)
(4.86384 -0.0301737 24.5155)
(4.80876 -0.0312638 24.5181)
(4.76396 -0.0309826 24.5196)
(4.70432 -0.0286522 24.5218)
(4.6767 -0.0278678 24.523)
(4.60559 -0.0261327 24.5253)
(4.3458 0.00138512 24.6394)
(4.35803 0.00419658 24.6378)
(4.3858 0.00716329 24.6362)
(4.42846 0.0103733 24.6345)
(4.4871 0.01363 24.6326)
(4.56156 0.016775 24.6305)
(4.65154 0.018786 24.6284)
(4.74635 0.0199456 24.6262)
(4.84785 0.016998 24.6241)
(4.91582 0.0123891 24.6224)
(4.9725 0.00672767 24.6209)
(4.97318 -0.00231463 24.6197)
(4.95977 -0.00569662 24.6187)
(4.92207 -0.00851524 24.6178)
(4.87657 -0.010035 24.6168)
(4.82209 -0.0103947 24.6159)
(4.77742 -0.0102948 24.6149)
(4.71766 -0.00947516 24.614)
(4.68977 -0.0091885 24.6131)
(4.61805 -0.00857389 24.6123)
(3.60542 0.0736844 20.3304)
(3.73372 0.0936584 20.2916)
(3.62306 0.0560122 20.0124)
(3.50463 0.128207 19.381)
(3.04829 0.131395 17.1562)
(2.77202 0.176309 16.4597)
(3.73572 0.0458807 21.1441)
(3.78194 0.0789299 21.1217)
(3.75046 0.106792 21.0952)
(3.72308 0.172522 21.0269)
(3.65207 0.241191 20.8821)
(3.50278 0.374973 20.6406)
(3.17191 0.6256 19.7975)
(2.27391 1.00837 16.6523)
(0.449474 -0.089152 11.6831)
(1.11032 -0.129389 13.0444)
(1.61709 -0.20433 14.228)
(2.01121 -0.12965 15.3685)
(2.18636 -0.0169061 15.3483)
(2.50848 -0.173791 16.3249)
(3.84611 0.042344 21.7672)
(3.85337 0.0794273 21.7534)
(3.83852 0.136487 21.7223)
(3.81132 0.204385 21.6674)
(3.76139 0.309119 21.5931)
(3.68351 0.495371 21.459)
(3.60083 0.866471 21.1885)
(3.44222 1.37645 19.9952)
(0.950749 -0.416412 11.8386)
(2.35388 -0.394251 16.0081)
(2.76679 -0.340404 17.1871)
(2.9862 -0.29918 17.8526)
(3.39162 -0.237337 18.8911)
(3.33562 -0.173343 18.6404)
(3.52537 -0.188183 19.2428)
(3.91241 0.0379544 22.1568)
(3.91735 0.0827862 22.1434)
(3.90833 0.140761 22.1166)
(3.89222 0.216854 22.0726)
(3.86694 0.32738 22.0084)
(3.83548 0.511319 21.9042)
(3.87077 0.841921 21.7194)
(3.90416 1.27431 21.3072)
(4.59012 1.86199 19.5925)
(4.69415 0.655065 16.9561)
(3.39357 -0.393652 15.7603)
(4.18356 -0.582877 19.5175)
(4.1111 -0.467809 20.0032)
(4.11003 -0.377548 20.3438)
(4.09868 -0.302047 20.5549)
(4.09191 -0.219304 20.6889)
(4.09246 -0.221574 20.7411)
(4.08407 -0.185921 20.822)
(3.96808 0.0347904 22.4824)
(3.97336 0.0833292 22.4708)
(3.97077 0.143937 22.4482)
(3.96664 0.221753 22.412)
(3.96283 0.332465 22.3572)
(3.97688 0.498773 22.2738)
(4.05296 0.78128 22.1336)
(4.38669 1.08189 21.8938)
(4.87706 1.19194 21.4762)
(5.30104 0.703607 20.8818)
(5.55936 0.166182 20.3961)
(5.20097 -0.371327 20.3528)
(4.91235 -0.47982 21.0144)