# vtk DataFile Version 2.0
sampleSurface
ASCII
DATASET POLYDATA
POINTS 3098 float
0.746192 0 -5.00894e-05 -6.50534 1.11022e-16 -4.7391e-05 0.739507 0 7.49995 7.99812 0
1.94289e-05 -6.5124 -1.11022e-16 7.49992 7.99235 -1.11022e-16 7.50019 -13.7546 0 -1.50031e-05
0.734852 -1.11022e-16 14.9998 15.2496 -1.11022e-16 6.60617e-05 -13.7602 0 7.49982 -6.51784
-1.11022e-16 14.9998 15.2414 -1.11022e-16 7.50009 7.98685 0 14.9998 -13.7648 0
14.9999 -20.9938 0 4.36099e-06 15.2348 -1.11022e-16 14.9998 -20.9936 2.22045e-16 7.49977
22.5022 0 1.49541e-05 0.735071 0 22.4998 -6.51815 -1.11022e-16 22.4999 22.4915
0 7.49989 7.98745 -1.11022e-16 22.4998 -20.9933 -1.11022e-16 14.9999 -13.7652 1.11022e-16
22.4999 22.4829 -1.11022e-16 14.9998 15.2356 0 22.4998 -28.2515 0 2.62893e-05
-28.2534 0 7.50012 29.7556 -1.11022e-16 -4.54549e-05 0.735819 1.11022e-16 29.9999 29.7426
0 7.4992 -6.51767 0 29.9999 -20.9933 -1.11022e-16 22.5 7.98856 0
29.9999 22.4839 1.11022e-16 22.4999 -28.255 0 15 -13.7649 0 30
29.7256 0 14.9997 15.237 0 29.9999 -35.5072 -1.11022e-16 5.90779e-05 -28.2551
0 22.5 -35.5123 1.11022e-16 7.50007 -20.993 1.11022e-16 30 36.9932 0
-7.53554e-05 29.7252 1.11022e-16 22.4999 22.4857 -1.11022e-16 29.9999 0.736256 -1.11022e-16 37.5
37.0663 -1.11022e-16 7.5 -6.5174 0 37.5 7.98913 1.11022e-16 37.5 -35.5169
-2.22045e-16 15 36.9578 0 14.9999 -13.7648 0 37.5 15.2378 0
37.5 -28.255 0 30 -35.5174 0 22.5 29.7273 -1.11022e-16 30
-42.7594 0 0.000106246 -20.9929 1.11022e-16 37.5 36.9398 -3.33067e-16 22.4999 -42.765
0 7.50013 22.4866 -1.11022e-16 37.5 44.3067 1.11022e-16 -0.000173064 44.3156 -5.55112e-17
3.74923 44.3638 -1.11022e-16 7.50044 0.736588 -1.11022e-16 45 -42.7692 2.22045e-16 15.0001
-6.51713 0 45 7.98959 0 45 -35.5174 0 30 44.2537
1.11022e-16 14.9995 -28.2549 0 37.5 -13.7646 -2.22045e-16 45 15.2384 1.11022e-16
45 36.9405 0 30 29.7284 0 37.5 47.8983 5.55112e-17 -0.000231375
47.9106 0 3.74943 -42.7696 1.11022e-16 22.5 48.0131 0 7.50081 44.229
-2.22045e-16 22.4999 -20.9927 -1.11022e-16 45 -50 -1.11022e-16 0.000116555 22.4873 -1.11022e-16
45 -50 -1.11022e-16 7.50012 51.4805 0 -0.000354952 -35.5173 1.11022e-16 37.5
51.6484 5.55112e-17 3.75115 -50 -2.22045e-16 15.0001 51.6711 0 7.50084 -42.7696
0 30 0.736735 -1.11022e-16 52.5 36.9419 0 37.5 51.4953 -1.11022e-16
11.2492 -6.51706 0 52.5 7.98975 0 52.5 -28.2549 0 45
44.2289 -1.11022e-16 30 51.37 -5.55112e-17 14.9994 29.729 -1.11022e-16 45 -13.7646
0 52.5 51.3052 -2.1684e-19 18.7496 51.3048 -2.60209e-18 18.8318 15.2386 -2.22045e-16
52.5 51.3708 -2.38524e-18 18.7496 -50 1.11022e-16 22.5 54.9985 0 -0.00260162
55.0346 0 1.87535 55.1369 0 3.75138 55.3085 5.55112e-17 7.50038 51.2883
-5.55112e-17 22.4998 55.0461 -5.55112e-17 11.249 -20.9927 0 52.5 56.7456 0
0.0299735 56.7783 -2.77556e-17 1.87544 -42.7696 0 37.5 54.8698 0 14.9993
56.8619 2.77556e-17 3.75216 22.4876 1.11022e-16 52.5 -35.5173 -1.11022e-16 45 54.8229
0 17.1162 51.2808 6.93889e-18 26.2499 55.7413 -6.93889e-18 14.9994 54.8037 0
18.7496 44.2298 -1.11022e-16 37.5 36.9422 -2.22045e-16 45 -50 0 30
58.4645 0 -0.244693 58.5154 0 1.88535 58.9168 0 -0.257294 58.9375
1.38778e-17 1.84572 58.8346 1.38778e-17 4.04008 59.1468 -3.46945e-18 1.82581 59.2027 0
-0.270676 59.0815 0 3.9148 54.7907 0 22.4998 59.2532 0 -0.267831
59.2573 0 1.824 58.2324 -1.38778e-17 11.2624 59.254 0 3.02719 58.004
1.38778e-17 12.6256 59.2576 -3.46945e-18 3.82483 51.283 -6.245e-17 30 57.6498 2.77556e-17
14.9995 -28.2548 1.11022e-16 52.5 59.2774 -2.77556e-17 7.62697 58.8187 2.77556e-17 11.263
58.0011 -1.38778e-17 14.9995 0.736891 0 60 58.3071 0 14.9994 29.7293
1.11022e-16 52.5 59.2786 -2.77556e-17 11.2636 -6.5169 0 60 57.4289 2.77556e-17
18.7498 7.98997 -1.11022e-16 60 58.8533 5.55112e-17 14.9994 54.7868 1.249e-16 26.2499
58.0003 -1.38778e-17 18.7498 58.1668 0 18.7498 59.2769 -2.77556e-17 14.9994 51.2799
6.93889e-18 33.75 -13.7644 0 60 57.3667 0 22.4999 58.7945 0
18.7497 15.2389 1.11022e-16 60 -42.7696 -1.11022e-16 45 59.2786 -2.77556e-17 18.7497
57.9997 2.77556e-17 22.4999 58.1285 -6.245e-17 22.4999 54.7871 0 30 -50
0 37.5 58.7775 2.77556e-17 22.4999 57.3544 0 26.25 44.2301 -1.11022e-16
45 -35.5173 -2.22045e-16 52.5 59.2769 0 22.4998 51.283 -6.93889e-18 37.5
-20.9926 1.11022e-16 60 58.0001 0 26.25 58.1216 0 26.25 22.4878
1.11022e-16 60 36.9426 0 52.5 54.7861 -8.32667e-17 33.75 58.7756 0
26.25 57.3526 -1.66533e-16 30 59.2786 0 26.25 57.9997 -2.08167e-17 30
58.1203 2.08167e-17 30 51.28 0 41.25 58.7742 -5.55112e-17 30 -28.2547
0 60 54.7871 0 37.5 59.2769 0 30 57.3525 0
33.75 29.7295 0 60 58.0002 0 33.75 58.1205 -6.93889e-18 33.75
-50 0 45 0.736925 0 67.5 -42.7695 0 52.5 58.7752
-2.77556e-17 33.75 -6.5169 3.33067e-16 67.5 7.98998 -1.11022e-16 67.5 59.2786 2.77556e-17
33.75 51.2831 -3.46945e-17 45 57.3524 5.55112e-17 37.5 54.7862 1.38778e-17 41.25
44.2303 1.11022e-16 52.5 -13.7644 0 67.5 57.9998 0 37.5 58.1202
4.16334e-17 37.5 15.2389 -1.11022e-16 67.5 58.7741 0 37.5 -35.5171 1.11022e-16
60 59.2769 0 37.5 36.9425 0 60 57.3524 -5.55112e-17 41.25
-20.9926 -1.11022e-16 67.5 51.2801 -6.93889e-18 48.75 54.787 0 45 22.4878
2.22045e-16 67.5 58.0002 6.93889e-18 41.25 58.1204 0 41.25 58.7752 -2.77556e-17
41.25 59.2786 -2.77556e-17 41.25 -50 0 52.5 57.3524 0 45
-28.2547 1.11022e-16 67.5 54.7862 -2.77556e-17 48.75 51.2831 -6.245e-17 52.5 57.9998
6.93889e-18 45 58.1202 -6.93889e-18 45 -42.7695 -1.11022e-16 60 29.7296 0
67.5 58.7741 2.77556e-17 45 59.2769 0 45 44.2304 -2.22045e-16 60
0.737014 0 75 57.3524 0 48.75 -6.51679 -1.11022e-16 75 7.99012
-2.22045e-16 75 58.0002 -6.93889e-18 48.75 58.1204 0 48.75 54.787 -1.38778e-17
52.5 51.2801 0 56.25 -13.7644 0 75 -35.5171 -1.11022e-16 67.5
58.7752 2.77556e-17 48.75 15.239 0 75 59.2786 2.77556e-17 48.75 36.9428
2.22045e-16 67.5 57.3524 0 52.5 -20.9926 1.11022e-16 75 -50 -1.11022e-16
60 57.9998 6.93889e-18 52.5 22.4879 0 75 58.1202 -6.93889e-18 52.5
54.7862 -1.38778e-17 56.25 58.7741 2.77556e-17 52.5 51.2831 -1.38778e-17 60 59.2769
-2.77556e-17 52.5 -42.7695 0 67.5 -28.2547 1.11022e-16 75 57.3524 0
56.25 29.7296 0 75 44.2304 -1.11022e-16 67.5 58.0002 2.08167e-17 56.25
58.1204 6.93889e-18 56.25 54.7871 0 60 58.7752 2.77556e-17 56.25 59.2786
2.77556e-17 56.25 51.2801 0 63.75 0.737004 -1.11022e-16 82.5 -6.51683 0
82.5 7.99007 1.11022e-16 82.5 -35.5171 0 75 57.3524 0 60
57.9998 1.38778e-17 60 58.1202 4.85723e-17 60 36.9426 1.11022e-16 75 -13.7644
1.11022e-16 82.5 15.239 -2.22045e-16 82.5 58.7741 2.77556e-17 60 -50 2.22045e-16
67.5 54.7862 -2.77556e-17 63.75 59.2769 -2.77556e-17 60 51.2831 -6.245e-17 67.5
-20.9926 -1.11022e-16 82.5 22.4879 1.11022e-16 82.5 57.3524 0 63.75 58.0002
6.93889e-18 63.75 58.1204 6.93889e-18 63.75 -42.7695 0 75 58.7752 -2.77556e-17
63.75 54.787 0 67.5 59.2786 2.77556e-17 63.75 44.2304 0 75
-28.2547 -1.11022e-16 82.5 29.7297 0 82.5 51.2801 0 71.25 57.3524
0 67.5 57.9998 1.38778e-17 67.5 58.1202 4.85723e-17 67.5 58.7741 2.77556e-17
67.5 -35.5171 0 82.5 59.2769 -2.77556e-17 67.5 54.7862 -6.93889e-17 71.25
0.737067 -1.11022e-16 90 -50 -1.11022e-16 75 -6.51675 -1.11022e-16 90 7.99018
1.11022e-16 90 36.9429 2.22045e-16 82.5 51.2831 1.17961e-16 75 -13.7643 0
90 15.239 -1.11022e-16 90 57.3524 0 71.25 58.0002 6.93889e-18 71.25
58.1204 6.93889e-18 71.25 58.7752 -2.77556e-17 71.25 -20.9925 1.11022e-16 90 59.2786
2.77556e-17 71.25 22.488 1.11022e-16 90 54.7871 0 75 -42.7695 0
82.5 44.2305 0 82.5 51.2801 -6.93889e-18 78.75 -28.2547 -2.22045e-16 90
57.3524 0 75 29.7297 -1.11022e-16 90 57.9998 1.38778e-17 75 58.1202
4.85723e-17 75 58.7741 2.77556e-17 75 59.2769 -2.77556e-17 75 54.7862 0
78.75 -50 0 82.5 -35.5171 1.11022e-16 90 51.2831 -1.80411e-16 82.5
36.9427 1.11022e-16 90 57.3524 0 78.75 0.737038 0 97.5 -6.5168
0 97.5 58.0002 6.93889e-18 78.75 7.9901 -1.11022e-16 97.5 58.1204 6.93889e-18
78.75 58.7752 -2.77556e-17 78.75 -13.7644 2.22045e-16 97.5 59.2786 2.77556e-17 78.75
15.239 0 97.5 54.787 -1.38778e-17 82.5 -42.7695 -1.11022e-16 90 -20.9926
-1.11022e-16 97.5 22.4879 0 97.5 44.2304 1.11022e-16 90 51.2801 0
86.25 57.3524 0 82.5 57.9998 -6.93889e-18 82.5 58.1202 4.85723e-17 82.5
58.7741 2.77556e-17 82.5 -28.2547 0 97.5 59.2769 -2.77556e-17 82.5 29.7297
1.11022e-16 97.5 54.7862 1.38778e-17 86.25 -50 0 90 57.3524 0
86.25 51.2831 -6.93889e-18 90 -35.5171 -1.11022e-16 97.5 58.0002 1.38778e-17 86.25
58.1204 6.93889e-18 86.25 36.9429 2.22045e-16 97.5 58.7752 -2.77556e-17 86.25 59.2786
2.77556e-17 86.25 0.73709 -1.11022e-16 105 -6.51673 0 105 7.9902 -1.11022e-16
105 54.7871 0 90 -13.7643 0 105 15.239 1.11022e-16 105
-42.7695 -1.11022e-16 97.5 57.3524 0 90 51.2801 0 93.75 44.2305
1.11022e-16 97.5 57.9998 1.38778e-17 90 -20.9925 2.22045e-16 105 58.1202 4.85723e-17
90 22.4881 0 105 58.7741 2.77556e-17 90 59.2769 -2.77556e-17 90
54.7862 0 93.75 -28.2547 0 105 29.7297 0 105 -50
-1.11022e-16 97.5 57.3524 0 93.75 51.2831 -1.04083e-16 97.5 58.0002 6.93889e-18
93.75 58.1204 6.93889e-18 93.75 58.7752 -2.77556e-17 93.75 -35.5171 0 105
59.2786 2.77556e-17 93.75 36.9427 -1.11022e-16 105 54.787 1.38778e-17 97.5 0.737054
-1.11022e-16 112.5 -6.51679 2.22045e-16 112.5 7.99012 -1.11022e-16 112.5 57.3524 0
97.5 -13.7644 0 112.5 -42.7695 0 105 57.9998 1.38778e-17 97.5
51.2801 -6.93889e-18 101.25 58.1202 4.85723e-17 97.5 15.239 -1.11022e-16 112.5 58.7741
2.77556e-17 97.5 44.2305 1.11022e-16 105 59.2769 -2.77556e-17 97.5 -20.9926 1.11022e-16
112.5 22.4879 -1.11022e-16 112.5 54.7862 0 101.25 -28.2547 0 112.5
-50 2.22045e-16 105 29.7297 0 112.5 57.3524 0 101.25 58.0002
1.38778e-17 101.25 58.1204 6.93889e-18 101.25 51.2831 2.08167e-17 105 58.7752 -2.77556e-17
101.25 59.2786 2.77556e-17 101.25 -35.5171 -2.22045e-16 112.5 36.9429 1.11022e-16 112.5
54.7871 0 105 57.3524 0 105 57.9998 1.38778e-17 105 0.737101
-1.11022e-16 120 58.1202 4.85723e-17 105 -6.51672 0 120 51.2801 6.93889e-18
108.75 7.99022 -1.11022e-16 120 58.7741 2.77556e-17 105 -42.7695 0 112.5
59.2769 -2.77556e-17 105 -13.7643 -1.11022e-16 120 44.2305 0 112.5 15.239
-1.11022e-16 120 54.7862 -2.77556e-17 108.75 -20.9925 0 120 22.4881 0
120 57.3524 0 108.75 -50 0 112.5 58.0002 6.93889e-18 108.75
[...]
POINT_DATA 3098
FIELD attributes 2
p 1 3098 float
0 0 0 0 0 0 0 0 0 0 0
0 0 0 0 0 0 0 0 0 0
0 0 0 0 0 0 0 0 0 0
0 0 0 0 0 0 0 0 0 0
0 0 0 0 0 0 0 0 0 0
0 0 0 0 0 0 0 0 0 0
0 0 0 0 0 0 0 0 0 0
0 0 0 0 0 0 0 0 0 0
0 0 0 0 0 0 0 0 0 0
0 0 0 0 0 0 0 0 0 0
0 0 0 0 0 0 0 0 0 0
0 0 0 0 0 0 0 0 0 0
0 0 0 0 0 0 0 0 0 0
0 0 0 0 0 0 0 0 0 0
0 0 0 0 0 0 0 0 0 0
0 0 0 0 0 0 0 0 0 0
0 0 0 0 0 0 0 0 0 0
0 0 0 0 0 0 0 0 0 0
0 0 0 0 0 0 0 0 0 0
0 0 0 0 0 0 0 0 0 0
0 0 0 0 0 0 0 0 0 0
0 0 0 0 0 0 0 0 0 0
0 0 0 0 0 0 0 0 0 0
0 0 0 0 0 0 0 0 0 0
0 0 0 0 0 0 0 0 0 0
0 0 0 0 0 0 0 0 0 0
0 0 0 0 0 0 0 0 0 0
0 0 0 0 0 0 0 0 0 0
0 0 0 0 0 0 0 0 0 0
0 0 0 0 0 0 0 0 0 0
0 0 0 0 0 0 0 0 0 0
0 0 0 0 0 0 0 0 0 0
0 0 0 0 0 0 0 0 0 0
0 0 0 0 0 0 0 0 0 0
0 0 0 0 0 0 0 0 0 0
0 0 0 0 0 0 0 0 0 0
0 0 0 0 0 0 0 0 0 0
0 0 0 0 0 0 0 0 0 0
0 0 0 0 0 0 0 0 0 0
0 0 0 0 0 0 0 0 0 0
0 0 0 0 0 0 0 0 0 0
0 0 0 0 0 0 0 0 0 0
0 0 0 0 0 0 0 0 0 0
0 0 0 0 0 0 0 0 0 0
0 0 0 0 0 0 0 0 0 0
0 0 0 0 0 0 0 0 0 0
0 0 0 0 0 0 0 0 0 0
0 0 0 0 0 0 0 0 0 0
0 0 0 0 0 0 0 0 0 0
0 0 0 0 0 0 0 0 0 0
0 0 0 0 0 0 0 0 0 0
0 0 0 0 0 0 0 0 0 0
0 0 0 0 0 0 0 0 0 0
0 0 0 0 0 0 0 0 0 0
0 0 0 0 0 0 0 0 0 0
0 0 0 0 0 0 0 0 0 0
0 0 0 0 0 0 0 0 0 0
0 0 0 0 0 0 0 0 0 0
0 0 0 0 0 0 0 0 0 0
0 0 0 0 0 0 0 0 0 0
0 0 0 0 0 0 0 0 0 0
0 0 0 0 0 0 0 0 0 0
0 0 0 0 0 0 0 0 0 0
0 0 0 0 0 0 0 0 0 0
0 0 0 0 0 0 0 0 0 0
0 0 0 0 0 0 0 0 0 0
0 0 0 0 0 0 0 0 0 0
0 0 0 0 0 0 0 0 0 0
0 0 0 0 0 0 0 0 0 0
0 0 0 0 0 0 0 0 0 0
0 0 0 0 0 0 0 0 0 0
0 0 0 0 0 0 0 0 0 0
0 0 0 0 0 0 0 0 0 0
0 0 0 0 0 0 0 0 0 0
0 0 0 0 0 0 0 0 0 0
0 0 0 0 0 0 0 0 0 0
0 0 0 0 0 0 0 0 0 0
0 0 0 0 0 0 0 0 0 0
0 0 0 0 0 0 0 0 0 0
0 0 0 0 0 0 0 0 0 0
0 0 0 0 0 0 0 0 0 0
0 0 0 0 0 0 0 0 0 0
0 0 0 0 0 0 0 0 0 0
0 0 0 0 0 0 0 0 0 0
0 0 0 0 0 0 0 0 0 0
0 0 0 0 0 0 0 0 0 0
0 0 0 0 0 0 0 0 0 0
0 0 0 0 0 0 0 0 0 0
0 0 0 0 0 0 0 0 0 0
0 0 0 0 0 0 0 0 0 0
0 0 0 0 0 0 0 0 0 0
0 0 0 0 0 0 0 0 0 0
0 0 0 0 0 0 0 0 0 0
0 0 0 0 0 0 0 0 0 0
0 0 0 0 0 0 0 0 0 0
0 0 0 0 0 0 0 0 0 0
0 0 0 0 0 0 0 0 0 0
0 0 0 0 0 0 0 0 0 0
0 0 0 0 0 0 0 0 0 0
0 0 0 0 0 0 0 0 0 0
0 0 0 0 0 0 0 0 0 0
0 0 0 0 0 0 0 0 0 0
0 0 0 0 0 0 0 0 0 0
0 0 0 0 0 0 0 0 0 0
0 0 0 0 0 0 0 0 0 0
0 0 0 0 0 0 0 0 0 0
0 0 0 0 0 0 0 0 0 0
0 0 0 0 0 0 0 0 0 0
0 0 0 0 0 0 0 0 0 0
0 0 0 0 0 0 0 0 0 0
0 0 0 0 0 0 0 0 0 0
0 0 0 0 0 0 0 0 0 0
0 0 0 0 0 0 0 0 0 0
0 0 0 0 0 0 0 0 0 0
0 0 0 0 0 0 0 0 0 0
0 0 0 0 0 0 0 0 0 0
0 0 0 0 0 0 0 0 0 0
0 0 0 0 0 0 0 0 0 0
0 0 0 0 0 0 0 0 0 0
0 0 0 0 0 0 0 0 0 0
0 0 0 0 0 0 0 0 0 0
0 0 0 0 0 0 0 0 0 0
0 0 0 0 0 0 0 0 0 0
0 0 0 0 0 0 0 0 0 0
0 0 0 0 0 0 0 0 0 0
0 0 0 0 0 0 0 0 0 0
0 0 0 0 0 0 0 0 0 0
0 0 0 0 0 0 0 0 0 0
0 0 0 0 0 0 0 0 0 0
0 0 0 0 0 0 0 0 0 0
0 0 0 0 0 0 0 0 0 0
0 0 0 0 0 0 0 0 0 0
0 0 0 0 0 0 0 0 0 0
0 0 0 0 0 0 0 0 0 0
0 0 0 0 0 0 0 0 0 0
0 0 0 0 0 0 0 0 0 0
0 0 0 0 0 0 0 0 0 0
0 0 0 0 0 0 0 0 0 0
0 0 0 0 0 0 0 0 0 0
0 0 0 0 0 0 0 0 0 0
0 0 0 0 0 0 0 0 0 0
0 0 0 0 0 0 0 0 0 0
0 0 0 0 0 0 0 0 0 0
0 0 0 0 0 0 0 0 0 0
0 0 0 0 0 0 0 0 0 0
0 0 0 0 0 0 0 0 0 0
0 0 0 0 0 0 0 0 0 0
0 0 0 0 0 0 0 0 0 0
0 0 0 0 0 0 0 0 0 0
0 0 0 0 0 0 0 0 0 0
0 0 0 0 0 0 0 0 0 0
0 0 0 0 0 0 0 0 0 0
0 0 0 0 0 0 0 0 0 0
0 0 0 0 0 0 0 0 0 0
0 0 0 0 0 0 0 0 0 0
0 0 0 0 0 0 0 0 0 0
0 0 0 0 0 0 0 0 0 0
0 0 0 0 0 0 0 0 0 0
0 0 0 0 0 0 0 0 0 0
0 0 0 0 0 0 0 0 0 0
0 0 0 0 0 0 0 0 0 0
0 0 0 0 0 0 0 0 0 0
0 0 0 0 0 0 0 0 0 0
0 0 0 0 0 0 0 0 0 0
0 0 0 0 0 0 0 0 0 0
0 0 0 0 0 0 0 0 0 0
0 0 0 0 0 0 0 0 0 0
0 0 0 0 0 0 0 0 0 0
0 0 0 0 0 0 0 0 0 0
0 0 0 0 0 0 0 0 0 0
0 0 0 0 0 0 0 0 0 0
0 0 0 0 0 0 0 0 0 0
0 0 0 0 0 0 0 0 0 0
0 0 0 0 0 0 0 0 0 0
0 0 0 0 0 0 0 0 0 0
0 0 0 0 0 0 0 0 0 0
0 0 0 0 0 0 0 0 0 0
0 0 0 0 0 0 0 0 0 0
0 0 0 0 0 0 0 0 0 0
0 0 0 0 0 0 0 0 0 0
0 0 0 0 0 0 0 0 0 0
0 0 0 0 0 0 0 0 0 0
0 0 0 0 0 0 0 0 0 0
0 0 0 0 0 0 0 0 0 0
0 0 0 0 0 0 0 0 0 0
0 0 0 0 0 0 0 0 0 0
0 0 0 0 0 0 0 0 0 0
0 0 0 0 0 0 0 0 0 0
0 0 0 0 0 0 0 0 0 0
0 0 0 0 0 0 0 0 0 0
0 0 0 0 0 0 0 0 0 0
0 0 0 0 0 0 0 0 0 0
0 0 0 0 0 0 0 0 0 0
0 0 0 0 0 0 0 0 0 0
0 0 0 0 0 0 0 0 0 0
0 0 0 0 0 0 0 0 0 0
0 0 0 0 0 0 0 0 0 0
0 0 0 0 0 0 0 0 0 0
0 0 0 0 0 0 0 0 0 0
0 0 0 0 0 0 0 0 0 0
0 0 0 0 0 0 0 0 0 0
0 0 0 0 0 0 0 0 0 0
0 0 0 0 0 0 0 0 0 0
0 0 0 0 0 0 0 0 0 0
0 0 0 0 0 0 0 0 0 0
0 0 0 0 0 0 0 0 0 0
0 0 0 0 0 0 0 0 0 0
0 0 0 0 0 0 0 0 0 0
0 0 0 0 0 0 0 0 0 0
0 0 0 0 0 0 0 0 0 0
0 0 0 0 0 0 0 0 0 0
0 0 0 0 0 0 0 0 0 0
0 0 0 0 0 0 0 0 0 0
0 0 0 0 0 0 0 0 0 0
0 0 0 0 0 0 0 0 0 0
0 0 0 0 0 0 0 0 0 0
0 0 0 0 0 0 0 0 0 0
0 0 0 0 0 0 0 0 0 0
0 0 0 0 0 0 0 0 0 0
0 0 0 0 0 0 0 0 0 0
0 0 0 0 0 0 0 0 0 0
0 0 0 0 0 0 0 0 0 0
0 0 0 0 0 0 0 0 0 0
0 0 0 0 0 0 0 0 0 0
0 0 0 0 0 0 0 0 0 0
0 0 0 0 0 0 0 0 0 0
0 0 0 0 0 0 0 0 0 0
0 0 0 0 0 0 0 0 0 0
0 0 0 0 0 0 0 0 0 0
0 0 0 0 0 0 0 0 0 0
0 0 0 0 0 0 0 0 0 0
0 0 0 0 0 0 0 0 0 0
0 0 0 0 0 0 0 0 0 0
0 0 0 0 0 0 0 0 0 0
0 0 0 0 0 0 0 0 0 0
0 0 0 0 0 0 0 0 0 0
0 0 0 0 0 0 0 0 0 0
0 0 0 0 0 0 0 0 0 0
0 0 0 0 0 0 0 0 0 0
0 0 0 0 0 0 0 0 0 0
0 0 0 0 0 0 0 0 0 0
0 0 0 0 0 0 0 0 0 0
0 0 0 0 0 0 0 0 0 0
0 0 0 0 0 0 0 0 0 0
0 0 0 0 0 0 0 0 0 0
0 0 0 0 0 0 0 0 0 0
0 0 0 0 0 0 0 0 0 0
0 0 0 0 0 0 0 0 0 0
0 0 0 0 0 0 0 0 0 0
0 0 0 0 0 0 0 0 0 0
0 0 0 0 0 0 0 0 0 0
0 0 0 0 0 0 0 0 0 0
0 0 0 0 0 0 0 0 0 0
0 0 0 0 0 0 0 0 0 0
0 0 0 0 0 0 0 0 0 0
0 0 0 0 0 0 0 0 0 0
0 0 0 0 0 0 0 0 0 0
0 0 0 0 0 0 0 0 0 0
0 0 0 0 0 0 0 0 0 0
0 0 0 0 0 0 0 0 0 0
0 0 0 0 0 0 0 0 0 0
0 0 0 0 0 0 0 0 0 0
0 0 0 0 0 0 0 0 0 0
0 0 0 0 0 0 0 0 0 0
0 0 0 0 0 0 0 0 0 0
0 0 0 0 0 0 0 0 0 0
0 0 0 0 0 0 0 0 0 0
0 0 0 0 0 0 0 0 0 0
0 0 0 0 0 0 0 0 0 0
0 0 0 0 0 0 0 0 0 0
0 0 0 0 0 0 0 0 0 0
0 0 0 0 0 0 0 0 0 0
0 0 0 0 0 0 0 0 0 0
0 0 0 0 0 0 0 0 0 0
0 0 0 0 0 0 0 0 0 0
0 0 0 0 0 0 0 0 0 0
0 0 0 0 0 0 0 0 0 0
0 0 0 0 0 0 0 0 0 0
0 0 0 0 0 0 0 0 0 0
0 0 0 0 0 0 0 0 0 0
0 0 0 0 0 0 0 0 0 0
0 0 0 0 0 0 0 0 0 0
0 0 0 0 0 0 0 0 0 0
0 0 0 0 0 0 0 0 0 0
0 0 0 0 0 0 0 0 0 0
0 0 0 0 0 0 0 0 0 0
0 0 0 0 0 0 0 0 0 0
0 0 0 0 0 0 0 0 0 0
0 0 0 0 0 0 0 0 0 0
0 0 0 0 0 0 0 0 0 0
0 0 0 0 0 0 0 0 0 0
0 0 0 0 0 0 0 0 0 0
0 0 0 0 0 0 0 0 0 0
0 0 0 0 0 0 0 0 0 0
0 0 0 0 0 0 0 0 0 0
0 0 0 0 0 0 0 0 0 0
0 0 0 0 0 0 0 0 0 0
0 0 0 0 0 0 0 0 0 0
0 0 0 0 0 0 0 0 0 0
0 0 0 0 0 0 0 0 0 0
0 0 0 0 0 0 0 0 0 0
0 0 0 0 0 0 0 0 0 0
0 0 0 0 0 0 0 0 0 0
0 0 0 0 0 0 0 0 0 0
0 0 0 0 0 0 0 0 0 0
0 0 0 0 0 0 0 0 0 0
0 0 0 0 0 0 0 0 0 0
0 0 0 0 0 0 0 0 0 0
0 0 0 0 0 0 0 0 0 0
0 0 0 0 0 0 0 
U 3 3098 float
0.385288 0.0109332 0.000588364 0.385389 0.0112758 -0.000289865 0.385263 0.0129665 0.000373881 0.382755 0.0188427
-6.60262e-05 0.385192 0.0108133 -5.24749e-05 0.383229 0.0177403 -0.000784895 0.387812 0.00615362 -2.98845e-05
0.385436 0.0130974 -0.00022856 0.379079 0.0220085 -8.6426e-06 0.387766 0.00609123 0.000193739 0.387322
0.00911424 5.22896e-05 0.379441 0.0221105 -0.000306015 0.383094 0.0181432 -0.00023686 0.388119 0.00574722
0.000218913 0.388595 0.00168981 -4.15122e-05 0.379467 0.0223003 -0.000180184 0.38846 0.00165403 0.000100203
0.372819 0.028377 3.57559e-05 0.385367 0.0131678 -7.16734e-05 0.387211 0.00912598 4.01974e-05 0.372912
0.028044 -0.000207488 0.383123 0.0182277 -9.53758e-05 0.388474 0.00156608 0.000165085 0.388072 0.00570869
0.000106874 0.372672 0.0280804 -0.000130467 0.379546 0.0223739 -7.69839e-05 0.388676 -0.00246192 1.13589e-05
0.388285 -0.00241548 0.00018945 0.36258 0.0362839 0.000106379 0.385325 0.0131943 -2.34396e-05 0.362791
0.0378536 0.000375592 0.387153 0.00913422 3.16599e-05 0.388455 0.00152777 0.000143603 0.383118 0.0182555
-3.66552e-05 0.37273 0.0281582 -6.31913e-05 0.387993 -0.00246508 0.000234475 0.388024 0.00569351 7.2623e-05
0.362738 0.0380664 2.57229e-06 0.379567 0.0223972 -3.39519e-05 0.375389 -0.0172488 5.33185e-05 0.38791
-0.00255584 0.00020351 0.375289 -0.0161674 0.000423313 0.388409 0.00150023 0.000112977 0.349705 0.0545897
-0.000151242 0.362893 0.0381112 5.00069e-05 0.372755 0.0281748 -2.37081e-05 0.3853 0.0132 -3.52719e-07
0.350855 0.0543416 -0.0012025 0.387118 0.00913262 2.96065e-05 0.38311 0.0182634 -9.83917e-06 0.375146
-0.0155833 0.000430901 0.349604 0.0541629 -0.00209414 0.387988 0.00568291 5.6052e-05 0.379574 0.0224039
-1.17335e-05 0.387843 -0.00260599 0.00016251 0.375032 -0.0157459 0.000310829 0.362921 0.03815 1.66375e-05
0.359407 -0.00414767 -7.29427e-05 0.388368 0.00148259 8.68148e-05 0.349793 0.0542935 -0.000522959 0.359867
-0.00301082 0.000807308 0.37277 0.028194 -3.27806e-06 0.325982 0.0754459 -0.000251225 0.320794 0.0813404
0.0030427 0.324847 0.0823063 0.00189273 0.385284 0.0132001 9.54416e-06 0.360074 -0.00173045 0.000782928
0.387096 0.00913008 2.72755e-05 0.383103 0.018265 2.2168e-06 0.374944 -0.0158345 0.000228235 0.331248
0.0728616 0.000553054 0.387795 -0.00263096 0.00012158 0.387963 0.00567632 4.46347e-05 0.379575 0.0224059
-8.08666e-07 0.349931 0.0543039 -4.96371e-05 0.362927 0.0381834 1.26762e-05 0.316117 0.0900414 0.000593228
0.312761 0.0908322 -0.000111927 0.360012 -0.00167426 0.000479529 0.313241 0.0914021 3.02427e-05 0.331897
0.0728872 0.000250138 0.388342 0.00147149 6.54587e-05 0.37412 0 21.4334 0.372776 0.028198
1.44479e-06 0.374075 0 21.4308 0.306239 0.122487 0.00110783 0.374894 -0.0158667 0.000159199
0.307285 0.12557 -0.0017131 0.374053 0 21.4295 0.308309 0.12748 -0.00175149 0.359962
-0.00174607 0.000301667 0.385274 0.0131987 1.28738e-05 0.349945 0.0543104 1.06436e-05 0.305087 0.134166
-0.00327665 0.387082 0.00912735 2.39232e-05 0.383097 0.0182652 7.26083e-06 0.387767 -0.00264673 8.71301e-05
0.332203 0.0729835 9.18658e-05 0.30627 0.132357 -0.00375647 0.362933 0.0381902 8.70874e-06 0.387947
0.00567151 3.54231e-05 0.306377 0.135022 -0.0022224 0.306403 0.134972 -0.00218858 0.379573 0.0224063
4.35723e-06 0.306208 0.135604 -0.002184 0.374071 0 21.4305 0.293652 0.174391 0.000457983
0.291146 0.179678 0.00011569 0.294246 0.175505 0.00075258 0.301993 0.171324 0.000312689 0.307667
0.132173 -0.000605474 0.297218 0.167696 0.000327448 0.388325 0.00146396 4.8994e-05 0.296046 0.194533
-0.00120703 0.296252 0.195471 -0.00374049 0.359931 -0.00178537 0.000195532 0.29617 0.166432 -8.80452e-05
0.296351 0.193342 -0.00430988 0.372778 0.0281978 4.17239e-06 0.374865 -0.0158934 0.000106788 0.296766
0.166065 -0.000153406 0.307178 0.134665 -7.20699e-05 0.296596 0.172993 0.0022577 0.297417 0.165567
-9.50414e-05 0.332257 0.0729751 3.89734e-05 0.349951 0.0543071 1.33095e-05 0.374075 0 21.4307
0.312766 0.203629 0.00591047 0.31246 0.203565 -0.0139721 0.319863 0.201349 0.00644802 0.324165
0.2021 -0.0216214 0.307558 0.195605 -0.0385866 0.107857 0.0659689 -0.00696172 0.0448718 0.0275058
0.000926093 0.312268 0.196614 -0.0637484 0.298138 0.165247 5.74929e-05 0 0 0
0 0 0 0.300109 0.195942 0.00870412 0 0 0 0.29762
0.19141 0.00854846 0 0 0 0.30803 0.13217 7.55163e-05 0.298054 0.186411
0.00764253 0.387752 -0.00265756 6.22029e-05 0 0 0 0.314065 0.207455 0.00860425
0.3025 0.190347 0.00779062 0.385267 0.0131972 1.31003e-05 0.309685 0.196089 0.00749414 0.362937
0.0381898 7.69125e-06 0 0 0 0.387073 0.00912509 2.02103e-05 0.299122 0.183267
0.00364076 0.383093 0.0182645 8.83091e-06 0.313872 0.207059 0.00411354 0.29841 0.165197 9.49503e-05
0.304009 0.190005 0.0031971 0.307155 0.193122 0.00295756 0 0 0 0.307215
0.134611 7.18336e-05 0.387937 0.00566806 2.7855e-05 0.299446 0.182145 0.00110684 0.311002 0.205937
0.000861137 0.379572 0.0224059 6.44509e-06 0.359908 -0.0018083 0.000128563 0 0 0
0.304253 0.189492 0.000958745 0.30666 0.191952 0.000901544 0.298464 0.165153 9.0074e-05 0.374075
0 21.4307 0.311101 0.205807 0.000373121 0.299604 0.181833 0.000355584 0.332271 0.0729707
2.48263e-05 0.374849 -0.0159125 7.29399e-05 0 0 0 0.308031 0.132158 5.56166e-05
0.388314 0.00145925 3.66197e-05 0.304397 0.189312 0.000315107 0.306568 0.191578 0.000300168 0.372778
0.0281977 5.6466e-06 0.349955 0.0543075 1.14757e-05 0.298461 0.165142 6.8728e-05 0.310683 0.205358
0.00017397 0.299531 0.181777 0.000139637 0 0 0 0.304235 0.189264 0.000129464
0.306455 0.191567 0.000125673 0.307203 0.134591 3.92412e-05 0.310969 0.205641 9.96693e-05 0.387743
-0.00266402 4.47895e-05 0.298457 0.165124 4.92625e-05 0 0 0 0.299605 0.181743
7.17041e-05 0.362939 0.0381899 7.26469e-06 0.304358 0.189242 6.85208e-05 0.306499 0.191486 6.75044e-05
0.374075 0 21.4307 0.385263 0.0131959 1.19645e-05 0.359893 -0.00182532 8.66974e-05 0.310628
0.205306 6.19846e-05 0.387067 0.0091232 1.66341e-05 0.38309 0.0182637 8.81629e-06 0 0
0 0.308024 0.132149 3.07464e-05 0.299517 0.181742 4.68699e-05 0.298449 0.165122 3.65166e-05
0.332276 0.0729732 1.73716e-05 0.38793 0.00566544 2.17276e-05 0.304213 0.189235 4.51836e-05 0.306429
0.191536 4.46629e-05 0.37957 0.0224054 6.95651e-06 0.310943 0.205618 4.23618e-05 0.37484 -0.015925
5.1017e-05 0 0 0 0.349958 0.0543076 8.59037e-06 0.299594 0.181727 3.40969e-05
0.388307 0.00145579 2.73748e-05 0.307197 0.134587 2.37377e-05 0.298449 0.165113 2.90819e-05 0.372778
0.0281973 5.9686e-06 0.304344 0.189227 3.31237e-05 0.306484 0.191471 3.28284e-05 0.310612 0.205293
3.15006e-05 0 0 0 0.374075 0 21.4307 0.299509 0.181733 2.75621e-05
0.387737 -0.00266857 3.24633e-05 0.298444 0.165118 2.32387e-05 0.308019 0.132147 1.87407e-05 0.304204
0.189227 2.69184e-05 0.306419 0.191528 2.67104e-05 0.359882 -0.0018337 6.00582e-05 0.362939 0.0381895
6.53749e-06 0.310933 0.20561 2.58257e-05 0 0 0 0.332277 0.0729743 1.12035e-05
0.385259 0.0131949 1.02946e-05 0.299589 0.181724 2.24441e-05 0.387063 0.00912188 1.34085e-05 0.383088
0.018263 7.97676e-06 0.304338 0.189223 2.20354e-05 0.306478 0.191467 2.19065e-05 0.298444 0.165111
1.82371e-05 0.307193 0.134586 1.4739e-05 0.387925 0.0056637 1.67993e-05 0.374833 -0.0159333 3.61455e-05
0.310605 0.205288 2.13961e-05 0.379568 0.0224049 6.53659e-06 0 0 0 0.349958
0.0543062 7.02084e-06 0.299506 0.181731 1.75818e-05 0.388303 0.00145364 2.04536e-05 0.374075 0
21.4307 0.3042 0.189225 1.73146e-05 0.372777 0.028197 5.5819e-06 0.306415 0.191526 1.72204e-05
0.298441 0.165117 1.43072e-05 0.310929 0.205607 1.68281e-05 0.308017 0.132147 1.18207e-05 0
0 0 0.359875 -0.0018405 4.2225e-05 0.387733 -0.0026715 2.37193e-05 0.299587 0.181722
1.37081e-05 0.36294 0.0381896 5.62082e-06 0.332278 0.0729726 8.30529e-06 0.304335 0.189222 1.35305e-05
0.306475 0.191466 1.34622e-05 0.298443 0.16511 1.16862e-05 0.310602 0.205287 1.31566e-05 0
0 0 0.307193 0.134585 9.70444e-06 0.385257 0.013194 8.56257e-06 0.38706 0.00912068
1.06536e-05 0.383086 0.0182623 6.86816e-06 0.374829 -0.0159398 2.60155e-05 0.299505 0.18173 1.1474e-05
0.304198 0.189223 1.13911e-05 0.306413 0.191525 1.13548e-05 0.349959 0.0543066 5.52701e-06 0.387922
0.00566219 1.29045e-05 0.379567 0.0224043 5.74623e-06 0.310926 0.205606 1.11955e-05 0.374075 0
21.4307 0.298441 0.165116 9.87672e-06 0 0 0 0.308017 0.132145 8.41363e-06
0.3883 0.00145177 1.52759e-05 0.372776 0.0281963 4.90335e-06 0.299587 0.181722 9.94636e-06 0.304334
0.189221 9.92645e-06 0.306474 0.191465 9.9195e-06 0.35987 -0.00184406 3.02344e-05 0.310601 0.205286
9.90184e-06 0.298444 0.165109 8.43093e-06 0 0 0 0.332278 0.0729737 6.21419e-06
0.387731 -0.0026737 1.73977e-05 0.362939 0.0381891 4.71545e-06 0.307192 0.134584 7.30019e-06 0.299505
0.18173 8.37444e-06 0.304198 0.189223 8.36922e-06 0.306413 0.191525 8.35796e-06 0.310926 0.205606
8.30054e-06 0.374826 -0.0159435 1.88193e-05 0 0 0 0.298441 0.165116 7.19317e-06
0.385255 0.0131934 6.93985e-06 0.374075 0 21.4307 0.387058 0.00911993 8.37701e-06 0.383084
0.0182618 5.72851e-06 0.349958 0.0543051 4.53893e-06 0.308016 0.132145 6.41811e-06 0.387921 0.00566118
9.92698e-06 0.379566 0.0224039 4.8846e-06 0.299587 0.181722 7.03314e-06 0.304334 0.189221 7.04841e-06
0.306474 0.191465 7.03143e-06 0.310601 0.205286 6.92401e-06 0.388298 0.00145061 1.15007e-05 0
0 0 0.372776 0.028196 4.19354e-06 0.298443 0.16511 6.46055e-06 0.359866 -0.00184715
2.17979e-05 0.332278 0.072972 4.94938e-06 0.307192 0.134584 5.82675e-06 0.387729 -0.00267516 1.28627e-05
0.299505 0.18173 6.43737e-06 0.362939 0.0381889 4.01167e-06 0.304198 0.189223 6.43364e-06 0.306412
0.191524 6.42674e-06 0.310926 0.205605 6.39295e-06 0 0 0 0.298441 0.165116
5.98181e-06 0.374075 0 21.4307 0.374824 -0.0159471 1.37134e-05 0.308017 0.132144 5.20441e-06
0.349959 0.0543055 3.83609e-06 0.299587 0.181722 6.05175e-06 0.385254 0.0131928 5.50026e-06 0.387057
0.00911924 6.49507e-06 0.304334 0.189221 6.0217e-06 0.383084 0.0182614 4.64703e-06 0.306473 0.191465
6.02624e-06 0.3106 0.205285 6.06898e-06 0.387919 0.00566043 7.57872e-06 0 0 0
0.379565 0.0224036 4.02959e-06 0.298444 0.165109 5.20996e-06 0.359864 -0.00184845 1.5772e-05 0.388297
0.00144975 8.62904e-06 0.372775 0.0281957 3.48944e-06 0.332279 0.0729731 4.11147e-06 0.307193 0.134584
4.60022e-06 0.299505 0.18173 5.18148e-06 0.304198 0.189223 5.19394e-06 0.306413 0.191524 5.19648e-06
0.310926 0.205605 5.19771e-06 0.387728 -0.00267616 9.49035e-06 0 0 0 0.362939
0.0381886 3.37094e-06 0.298441 0.165115 4.49028e-06 0.374075 0 21.4307 0.299587 0.181722
4.40086e-06 0.308016 0.132145 4.2284e-06 0.374823 -0.0159486 9.95586e-06 0.304334 0.189221 4.45685e-06
0.306473 0.191465 4.45475e-06 0.349958 0.0543044 3.28219e-06 0.3106 0.205285 4.4075e-06 0
0 0 0.385254 0.0131925 4.25269e-06 0.387056 0.00911885 4.92373e-06 0.383083 0.0182612
3.6591e-06 0.298443 0.16511 4.27797e-06 0.387919 0.00565997 5.64862e-06 0.379565 0.0224034 3.21767e-06
0.359862 -0.00185016 1.13601e-05 0.299505 0.18173 4.31147e-06 0.307193 0.134584 3.98123e-06 0.332279
0.0729716 3.37887e-06 0.304198 0.189223 4.33348e-06 0.388296 0.00144922 6.34069e-06 0.306412 0.191524
4.33811e-06 0.372775 0.0281956 2.82929e-06 0.310925 0.205605 4.3527e-06 0 0 0
0.298441 0.165115 4.15876e-06 0.387728 -0.0026769 6.9098e-06 0.362939 0.0381886 2.74867e-06 0.374075
0 21.4307 0.299587 0.181722 4.28165e-06 0.308017 0.132144 3.61917e-06 0.304334 0.189221
4.25988e-06 0.306473 0.191465 4.27038e-06 0.310601 0.205286 4.3419e-06 0.374822 -0.0159508 7.20397e-06
0 0 0 0.349959 0.054305 2.65656e-06 0.298444 0.165109 3.68901e-06 0.385253
0.0131921 3.16963e-06 0.387055 0.00911839 3.62049e-06 0.383083 0.0182609 2.76756e-06 0.299505 0.18173
3.70382e-06 0.387918 0.00565947 4.0981e-06 0.35986 -0.00185069 8.20043e-06 0.304198 0.189223 3.71e-06
0.307193 0.134584 3.19807e-06 0.306413 0.191525 3.71179e-06 0.379565 0.0224032 2.47536e-06 0.310926
0.205606 3.71896e-06 0.332279 0.0729728 2.75632e-06 0 0 0 0.388296 0.00144865
4.54498e-06 0.372775 0.0281953 2.20289e-06 0.298441 0.165115 3.13845e-06 0.387728 -0.00267744 4.91269e-06
0.374075 0 21.4307 0.362938 0.0381883 2.12545e-06 0.299587 0.181722 3.06207e-06 0.304334
0.189221 3.10884e-06 0.306473 0.191465 3.1041e-06 0.308017 0.132145 2.84405e-06 0.310601 0.205286
3.05457e-06 0 0 0 0.374821 -0.0159513 5.0909e-06 0.349958 0.0543041 2.07507e-06
0.298444 0.16511 2.89653e-06 0.299505 0.18173 2.93061e-06 0.304198 0.189223 2.95731e-06 0.385253
0.0131919 2.22554e-06 0.306413 0.191524 2.96332e-06 0.387055 0.00911823 2.54542e-06 0.307193 0.134583
2.58985e-06 0.383082 0.0182608 1.94461e-06 0.310926 0.205605 2.98361e-06 0.35986 -0.00185157 5.83525e-06
0 0 0 0.387917 0.00565925 2.88509e-06 0.332279 0.0729714 2.12104e-06 0.379564
0.0224031 1.75046e-06 0.298442 0.165116 2.74302e-06 0.388296 0.00144839 3.17568e-06 0.372775 0.0281953
1.57555e-06 0.299587 0.181722 2.87305e-06 0.374075 0 21.4307 0.304334 0.189221 2.86706e-06
0.387728 -0.00267785 3.37639e-06 0.306474 0.191465 2.88137e-06 0.310601 0.205286 2.96149e-06 0.362939
0.0381883 1.50967e-06 0.308017 0.132144 2.24795e-06 0 0 0 0.298444 0.165109
2.29741e-06 0.374821 -0.0159528 3.45091e-06 0.349959 0.0543047 1.45999e-06 0.299506 0.18173 2.32157e-06
0.304198 0.189223 2.33687e-06 0.306413 0.191525 2.34145e-06 0.310926 0.205606 2.35829e-06 0.307193
0.134584 1.84702e-06 0 0 0 0.359859 -0.00185157 3.99719e-06 0.385253 0.0131917
1.39756e-06 0.387055 0.00911802 1.61964e-06 0.383082 0.0182606 1.19646e-06 0.332279 0.0729724 1.55179e-06
0.387917 0.00565909 1.85772e-06 0.379564 0.0224029 1.05972e-06 0.298442 0.165116 1.78643e-06 0.388295
0.00144822 2.04639e-06 0.372775 0.0281951 9.56114e-07 0.299587 0.181722 1.72235e-06 0.304334 0.189221
1.7748e-06 0.306474 0.191465 1.77145e-06 0.374075 0 21.4307 0.310601 0.205286 1.73084e-06
0 0 0 0.308017 0.132145 1.57159e-06 0.387727 -0.00267808 2.14104e-06 0.362938