/*--------------------------------*- C++ -*----------------------------------*\
  =========                 |
  \\      /  F ield         | OpenFOAM: The Open Source CFD Toolbox
   \\    /   O peration     | Website:  https://openfoam.org
    \\  /    A nd           | Version:  10
     \\/     M anipulation  |
\*---------------------------------------------------------------------------*/
FoamFile
{
    format      ascii;
    class       volScalarField;
    location    "2000";
    object      k;
}
// * * * * * * * * * * * * * * * * * * * * * * * * * * * * * * * * * * * * * //

dimensions      [0 2 -2 0 0 0 0];

internalField   nonuniform List<scalar> 
52338
(
0.224629
0.195467
0.222079
0.384983
0.741454
1.41418
0.211885
0.17136
0.144159
0.125735
0.118263
0.12956
0.319673
0.987534
1.77866
2.24066
2.26173
2.32174
2.27867
2.11293
0.193389
0.161114
0.137604
0.119987
0.10695
0.10176
0.151478
0.393481
2.04003
2.05029
1.6878
1.39223
0.870745
0.848602
0.705929
0.19343
0.161067
0.137553
0.119912
0.106601
0.0978884
0.111602
0.184077
0.406054
1.14983
1.4696
0.74191
0.339865
0.28108
0.23721
0.213079
0.198543
0.184575
0.193654
0.161312
0.137751
0.120017
0.106511
0.0967973
0.0966112
0.121454
0.176791
0.229395
0.269914
0.237578
0.18679
0.130653
0.117115
0.105511
0.0963412
0.0892116
0.0832634
0.0781403
0.193905
0.161628
0.138055
0.120261
0.106621
0.0963921
0.0911926
0.0976139
0.107048
0.112674
0.110016
0.104315
0.0956248
0.0866765
0.0797774
0.0740382
0.0692302
0.0651111
0.0614529
0.0581759
0.194151
0.161958
0.138397
0.120575
0.10685
0.0963532
0.0891588
0.087642
0.088661
0.0888293
0.0857284
0.0811867
0.0758136
0.0710011
0.0662141
0.0623755
0.058906
0.0557742
0.0529319
0.0503583
0.194384
0.16228
0.138744
0.120912
0.107139
0.0964847
0.0884777
0.0836018
0.0806701
0.0780965
0.0747264
0.0709777
0.0669332
0.0631617
0.0595623
0.0563828
0.053478
0.0508205
0.0483947
0.0461773
0.194602
0.162587
0.139081
0.121248
0.107442
0.09669
0.0882895
0.0821066
0.0774703
0.0735874
0.0698321
0.0661691
0.0625693
0.0591722
0.0560159
0.0531665
0.0505487
0.0481308
0.0459121
0.0438714
0.194804
0.162876
0.139401
0.121572
0.107741
0.0969087
0.0883079
0.0815804
0.0762043
0.0716929
0.0676374
0.0639201
0.0604195
0.0572019
0.0542371
0.0515204
0.0490184
0.0467023
0.0445732
0.0426065
0.194992
0.163147
0.139704
0.121881
0.10803
0.0971147
0.0884215
0.0814176
0.075695
0.0708678
0.0666111
0.062739
0.0593379
0.0561458
0.0532349
0.0505692
0.0481232
0.0458613
0.0437811
0.0418537
0.195166
0.1634
0.139988
0.122172
0.108309
0.0973756
0.088545
0.0814043
0.0754984
0.0704885
0.0660997
0.0622008
0.0587031
0.0555304
0.0526526
0.0500149
0.0475949
0.0453573
0.043299
0.0413881
0.195329
0.163638
0.140225
0.122443
0.108575
0.0976201
0.0887341
0.0814621
0.0754417
0.0703132
0.0658314
0.0618757
0.0583471
0.0551649
0.0522904
0.0496599
0.0472504
0.0450254
0.0429797
0.0410788
0.195482
0.163862
0.140515
0.122715
0.108872
0.0978195
0.0888993
0.0815645
0.0754624
0.0702543
0.0656967
0.0616954
0.0581366
0.0549423
0.0520837
0.0494288
0.0470305
0.0448151
0.0427774
0.0408815
0.195625
0.164072
0.140752
0.122961
0.109096
0.0980333
0.089074
0.0816976
0.0755349
0.0702652
0.0656574
0.0616248
0.0580412
0.0548329
0.0519424
0.0493177
0.0469124
0.0446949
0.042658
0.0407633
0.19576
0.164271
0.140976
0.123189
0.109303
0.0982305
0.0892481
0.0818401
0.0756362
0.0703184
0.0656911
0.0616269
0.0580218
0.0548004
0.0518996
0.0492679
0.0468581
0.0446385
0.0426003
0.0407044
0.195886
0.164457
0.141185
0.1234
0.109502
0.0984101
0.0894109
0.0819818
0.0757478
0.0704088
0.0657484
0.0616607
0.0580346
0.0547946
0.0518752
0.0492243
0.0467981
0.044564
0.0425128
0.0406038
0.195957
0.164546
0.14126
0.123448
0.109508
0.0983798
0.0893429
0.0818826
0.0756089
0.0702241
0.0655248
0.0614019
0.0577379
0.0544671
0.0515188
0.0488433
0.0463936
0.0441399
0.0420713
0.0401469
0.2245
0.182831
0.18086
0.245419
0.669468
1.01202
0.211878
0.171308
0.144042
0.125273
0.116586
0.123151
0.256138
0.731269
1.7694
2.2227
2.23911
2.31883
2.29591
2.13452
0.193369
0.161074
0.137597
0.119986
0.106954
0.101431
0.146643
0.328859
2.32853
2.02768
1.70908
1.41349
0.873376
0.848213
0.706835
0.193436
0.16106
0.137552
0.119912
0.106603
0.0979013
0.110781
0.165328
0.364506
0.719275
1.33022
0.429574
0.344855
0.283441
0.238774
0.214086
0.199107
0.184952
0.193663
0.161308
0.13775
0.120017
0.106511
0.0967991
0.0964693
0.121062
0.171749
0.220456
0.243144
0.228937
0.153145
0.131492
0.117703
0.105938
0.096518
0.0892113
0.0831966
0.0780836
0.193914
0.161625
0.138056
0.120261
0.106621
0.0963937
0.0911701
0.0975855
0.107164
0.112901
0.109914
0.103788
0.0948297
0.0864278
0.0798575
0.0741108
0.0692429
0.065088
0.061424
0.0581613
0.19416
0.161956
0.138398
0.120575
0.106851
0.0963582
0.0891491
0.0876185
0.0887334
0.0889388
0.085548
0.0810466
0.0755043
0.0705904
0.0659847
0.0622896
0.0588731
0.0557606
0.0529276
0.0503608
0.194393
0.162278
0.138745
0.120912
0.107141
0.0964946
0.0884803
0.0836062
0.08069
0.0781204
0.0746271
0.0708815
0.0667612
0.0629457
0.0594184
0.0563372
0.0534677
0.05082
0.0483966
0.0461805
0.19461
0.162585
0.139082
0.121248
0.107444
0.0966959
0.0882977
0.0821119
0.0774744
0.0735902
0.0697849
0.0661185
0.0625236
0.0590912
0.0559473
0.0531455
0.0505461
0.0481323
0.0459137
0.0438728
0.194812
0.162874
0.139402
0.121572
0.107743
0.096914
0.0883166
0.0815841
0.0762065
0.0716941
0.0676171
0.0638744
0.0603734
0.0571594
0.0541898
0.0515033
0.0490151
0.0467028
0.044574
0.0426073
0.195
0.163145
0.139704
0.121881
0.108032
0.0971227
0.0884222
0.081419
0.0756971
0.0708691
0.0666026
0.0627178
0.0593229
0.0561266
0.0532057
0.0505587
0.0481215
0.0458618
0.0437815
0.0418541
0.195174
0.163399
0.139988
0.122173
0.108311
0.0973754
0.0885531
0.0814008
0.0754985
0.070489
0.0660956
0.0621949
0.058697
0.0555177
0.0526282
0.0500036
0.0475919
0.0453571
0.0432992
0.0413884
0.195337
0.163637
0.140235
0.12244
0.108578
0.097613
0.0887356
0.0814653
0.0754428
0.0703138
0.0658293
0.0618725
0.0583426
0.0551565
0.0522712
0.0496483
0.0472466
0.0450248
0.0429798
0.041079
0.195489
0.16386
0.140512
0.122716
0.108871
0.0978263
0.0889016
0.081567
0.0754635
0.0702545
0.0656954
0.0616936
0.0581332
0.0549367
0.052065
0.049418
0.0470251
0.0448132
0.0427769
0.0408814
0.195632
0.164071
0.140749
0.122962
0.109098
0.0980386
0.0890767
0.0817004
0.0755359
0.0702657
0.0656567
0.0616238
0.0580385
0.0548292
0.0519299
0.0493047
0.0469079
0.044694
0.0426581
0.0407636
0.195766
0.16427
0.140973
0.12319
0.109304
0.0982335
0.0892501
0.0818423
0.0756369
0.0703199
0.0656897
0.0616263
0.0580198
0.0547981
0.0518907
0.0492582
0.0468548
0.0446379
0.0426004
0.0407046
0.195893
0.164456
0.141181
0.1234
0.109503
0.0984107
0.0894117
0.0819833
0.0757487
0.0704076
0.0657488
0.0616602
0.0580326
0.0547922
0.0518681
0.0492174
0.046796
0.0445638
0.0425129
0.040604
0.195964
0.164545
0.141257
0.123449
0.109509
0.0983801
0.0893432
0.0818837
0.0756084
0.0702241
0.0655249
0.0614012
0.0577365
0.0544669
0.0515168
0.0488411
0.0463933
0.0441401
0.0420714
0.0401469
0.224527
0.178586
0.165175
0.2069
0.602183
0.941887
0.211884
0.171304
0.144015
0.125192
0.116903
0.122426
0.2443
0.6507
1.75207
2.20805
2.21856
2.3092
2.30498
2.15255
0.193358
0.161053
0.137586
0.119981
0.10696
0.101219
0.143785
0.314302
2.30691
1.98921
1.71504
1.43081
0.876208
0.849103
0.706744
0.193441
0.161056
0.137549
0.119909
0.106604
0.0979145
0.110408
0.162996
0.338094
0.58156
1.26437
0.420702
0.344549
0.284924
0.24018
0.215059
0.199686
0.185331
0.193669
0.161306
0.137748
0.120014
0.106509
0.0968085
0.0965064
0.120585
0.170091
0.218083
0.239848
0.223687
0.153519
0.133744
0.118565
0.106474
0.0967937
0.0892829
0.0831657
0.0780384
0.19392
0.161623
0.138053
0.120258
0.106619
0.0963985
0.0912076
0.0976295
0.107219
0.113183
0.110062
0.103919
0.0949613
0.0868464
0.0800029
0.0742048
0.0692791
0.0650819
0.0614013
0.0581454
0.194166
0.161954
0.138396
0.120573
0.10685
0.0963685
0.089155
0.0876541
0.0888245
0.0891225
0.0856428
0.081149
0.0755766
0.0706813
0.0661111
0.0622749
0.0588481
0.0557446
0.05292
0.0503607
0.194399
0.162277
0.138743
0.12091
0.10714
0.096501
0.0884709
0.0836119
0.0807256
0.0781864
0.0746477
0.0708894
0.0667646
0.0629783
0.0594542
0.0563219
0.0534572
0.0508168
0.0483968
0.0461829
0.194616
0.162584
0.13908
0.121246
0.107443
0.0966998
0.0882885
0.0821124
0.0774834
0.0736087
0.0697857
0.0661157
0.0625412
0.0590713
0.0559643
0.0531395
0.0505429
0.0481325
0.0459147
0.043874
0.194818
0.162873
0.1394
0.121571
0.107743
0.0969176
0.0883092
0.0815823
0.0762085
0.0716996
0.0676153
0.0638651
0.060396
0.0571537
0.0541997
0.0514977
0.0490116
0.0467022
0.0445744
0.042608
0.195005
0.163145
0.139703
0.12188
0.108031
0.0971306
0.0884135
0.0814147
0.0756984
0.0708715
0.0666017
0.0627232
0.0593134
0.0561192
0.0532137
0.050557
0.0481201
0.0458618
0.0437819
0.0418545
0.19518
0.163398
0.139987
0.122172
0.10831
0.0973742
0.088555
0.081397
0.075499
0.0704898
0.0660949
0.0621942
0.0586976
0.0555143
0.052633
0.0500014
0.0475897
0.0453563
0.0432991
0.0413885
0.195342
0.163637
0.140241
0.122439
0.108579
0.0976069
0.0887331
0.0814649
0.0754441
0.0703144
0.0658289
0.0618724
0.0583422
0.0551538
0.0522742
0.0496465
0.0472445
0.0450239
0.0429796
0.0410791
0.195494
0.16386
0.140509
0.122715
0.108869
0.0978272
0.0889016
0.0815674
0.075464
0.0702545
0.065695
0.0616933
0.0581326
0.0549345
0.0520598
0.0494235
0.0470244
0.0448118
0.0427761
0.0408811
0.195637
0.164071
0.140747
0.122962
0.109099
0.0980358
0.0890764
0.0817011
0.0755362
0.0702658
0.0656566
0.0616236
0.0580376
0.0548277
0.0519307
0.0493044
0.0469059
0.044693
0.0426578
0.0407636
0.195771
0.16427
0.14097
0.12319
0.109306
0.0982311
0.0892498
0.0818431
0.0756371
0.0703207
0.0656892
0.061626
0.0580191
0.0547974
0.0518913
0.0492578
0.0468533
0.0446372
0.0426003
0.0407047
0.195898
0.164457
0.141179
0.1234
0.109503
0.0984104
0.0894116
0.0819839
0.0757492
0.0704068
0.0657492
0.0616606
0.058032
0.054792
0.0518686
0.0492168
0.0467949
0.0445634
0.0425129
0.040604
0.195969
0.164545
0.141254
0.123448
0.109509
0.0983801
0.0893433
0.0818843
0.0756081
0.0702241
0.0655255
0.061401
0.0577355
0.0544674
0.051517
0.04884
0.0463929
0.0441401
0.0420715
0.040147
0.224556
0.177586
0.15578
0.18143
0.545899
0.967222
0.211885
0.1713
0.143989
0.125042
0.116955
0.121522
0.235573
0.630667
1.729
2.19232
2.20133
2.29681
2.30579
2.1653
0.193347
0.161037
0.137575
0.119973
0.106962
0.101014
0.141016
0.301046
2.37242
1.94254
1.70793
1.44165
0.878684
0.8505
0.705815
0.193443
0.161054
0.137545
0.119905
0.106605
0.0979037
0.109777
0.159606
0.318177
0.558045
1.25867
0.40986
0.340641
0.284796
0.241052
0.215843
0.200185
0.185664
0.193673
0.161305
0.137745
0.120011
0.106507
0.0968126
0.0964416
0.119654
0.166446
0.213067
0.234915
0.220001
0.153713
0.13505
0.119423
0.107057
0.097141
0.0894188
0.0831701
0.0780035
0.193923
0.161623
0.138052
0.120255
0.106617
0.0964014
0.0912204
0.0975058
0.106968
0.113122
0.110141
0.104041
0.0950782
0.0871359
0.0801744
0.0743132
0.0693324
0.0650897
0.0613842
0.0581278
0.194169
0.161953
0.138394
0.12057
0.106848
0.096375
0.0891607
0.0876553
0.0888377
0.0892232
0.0857418
0.0812453
0.075644
0.070759
0.0662138
0.0622942
0.0588369
0.0557297
0.0529095
0.050357
0.194402
0.162277
0.138742
0.120908
0.107139
0.0965053
0.088466
0.0836125
0.0807434
0.0782352
0.0746785
0.0709058
0.0667703
0.063002
0.0594855
0.0563204
0.0534499
0.0508124
0.0483953
0.0461837
0.194619
0.162584
0.139079
0.121245
0.107442
0.0967024
0.0882827
0.0821107
0.0774881
0.0736228
0.0697913
0.0661159
0.0625514
0.059063
0.055976
0.0531385
0.0505402
0.048132
0.0459151
0.0438748
0.194821
0.162874
0.1394
0.121569
0.107742
0.09692
0.0883045
0.0815797
0.0762086
0.0717034
0.0676154
0.0638592
0.0604091
0.0571538
0.0542092
0.0514967
0.0490089
0.0467011
0.0445743
0.0426084
0.195009
0.163145
0.139702
0.121879
0.108031
0.0971356
0.0884088
0.0814106
0.0756979
0.0708728
0.0666016
0.0627266
0.0593084
0.056113
0.05322
0.0505578
0.0481194
0.0458616
0.043782
0.0418547
0.195183
0.163399
0.139987
0.122171
0.10831
0.0973735
0.0885558
0.0813943
0.0754985
0.0704902
0.0660946
0.0621936
0.058698
0.0555122
0.052638
0.0500019
0.0475884
0.0453555
0.0432989
0.0413884
0.195345
0.163637
0.140246
0.12244
0.10858
0.097603
0.0887305
0.0814638
0.0754447
0.0703149
0.0658287
0.0618722
0.058342
0.0551519
0.052278
0.0496474
0.0472434
0.045023
0.0429792
0.041079
0.195497
0.163861
0.140508
0.122715
0.108867
0.097827
0.0889015
0.0815675
0.0754643
0.0702546
0.0656948
0.0616931
0.0581321
0.054933
0.0520577
0.0494278
0.0470253
0.0448112
0.0427755
0.0408808
0.19564
0.164072
0.140746
0.122962
0.109101
0.0980342
0.0890757
0.0817013
0.0755364
0.070266
0.0656566
0.0616235
0.0580371
0.0548265
0.0519321
0.049306
0.0469052
0.0446921
0.0426575
0.0407636
0.195775
0.164271
0.140969
0.123189
0.109307
0.0982298
0.0892492
0.0818434
0.0756373
0.0703214
0.0656891
0.0616257
0.0580185
0.0547967
0.0518923
0.0492588
0.0468527
0.0446365
0.0426
0.0407047
0.195901
0.164458
0.141178
0.123399
0.109503
0.0984102
0.0894115
0.0819843
0.0757497
0.0704065
0.0657493
0.0616609
0.0580317
0.0547916
0.0518693
0.0492173
0.0467943
0.0445629
0.0425128
0.0406041
0.195972
0.164547
0.141253
0.123447
0.109508
0.09838
0.0893433
0.0818847
0.0756081
0.0702241
0.065526
0.061401
0.0577348
0.0544676
0.0515174
0.0488396
0.0463926
0.0441401
0.0420716
0.040147
0.224572
0.177904
0.151313
0.164977
0.508212
1.01846
0.211886
0.171297
0.143973
0.124863
0.116689
0.120635
0.230001
0.654413
1.70794
2.17061
2.18618
2.28377
2.29991
2.17173
0.193339
0.161025
0.137566
0.119965
0.106959
0.100835
0.138828
0.293266
2.42868
1.8906
1.69338
1.44705
0.880749
0.851959
0.704309
0.193444
0.161053
0.137543
0.119903
0.106604
0.0978819
0.109082
0.156525
0.305293
0.564058
1.34894
0.402065
0.335553
0.28327
0.241258
0.216353
0.200566
0.185938
0.193674
0.161305
0.137744
0.120009
0.106506
0.0968129
0.0963124
0.118572
0.162419
0.207101
0.228831
0.216066
0.153486
0.135737
0.120111
0.107613
0.0975252
0.0896086
0.0832136
0.077984
0.193925
0.161623
0.138051
0.120254
0.106616
0.0964032
0.0912131
0.0972695
0.106468
0.112691
0.110012
0.104076
0.0951659
0.0873477
0.0803445
0.0744306
0.0693994
0.0651106
0.0613743
0.0581101
0.194171
0.161953
0.138393
0.120569
0.106848
0.0963792
0.0891646
0.087626
0.0887753
0.0892194
0.0857992
0.0813231
0.0757088
0.070829
0.0662993
0.0623298
0.0588388
0.0557189
0.0528979
0.05035
0.194404
0.162277
0.138741
0.120907
0.107138
0.0965084
0.0884643
0.0836085
0.080743
0.078259
0.0747045
0.0709252
0.0667803
0.0630211
0.059511
0.0563256
0.0534458
0.0508079
0.0483924
0.0461829
0.194621
0.162585
0.139078
0.121244
0.107442
0.0967044
0.0882796
0.0821082
0.0774887
0.0736307
0.0697971
0.0661175
0.0625581
0.0590602
0.0559834
0.0531399
0.0505383
0.0481308
0.0459149
0.043875
0.194823
0.162874
0.139399
0.121569
0.107742
0.0969217
0.088302
0.0815771
0.0762074
0.0717048
0.0676157
0.0638552
0.0604164
0.057156
0.0542164
0.0514981
0.0490072
0.0467
0.0445739
0.0426085
0.195011
0.163146
0.139702
0.121878
0.10803
0.0971389
0.0884067
0.0814072
0.0756963
0.0708728
0.0666014
0.0627287
0.0593058
0.0561082
0.0532231
0.0505592
0.048119
0.0458614
0.043782
0.0418548
0.195185
0.1634
0.139987
0.12217
0.10831
0.0973732
0.0885561
0.0813926
0.0754976
0.07049
0.0660943
0.062193
0.058698
0.0555109
0.0526412
0.0500032
0.0475877
0.0453547
0.0432984
0.0413883
0.195348
0.163638
0.140249
0.122441
0.108581
0.0976008
0.0887282
0.0814624
0.0754445
0.070315
0.0658287
0.061872
0.0583417
0.0551506
0.0522802
0.0496487
0.0472431
0.0450223
0.0429788
0.0410787
0.1955
0.163862
0.140507
0.122714
0.108866
0.0978266
0.0889013
0.0815674
0.0754644
0.0702546
0.0656946
0.0616928
0.0581318
0.0549318
0.0520562
0.0494303
0.0470266
0.0448112
0.042775
0.0408803
0.195642
0.164073
0.140745
0.122961
0.109101
0.0980332
0.089075
0.0817013
0.0755365
0.0702661
0.0656566
0.0616234
0.0580367
0.0548255
0.051933
0.0493073
0.0469051
0.0446915
0.0426571
0.0407634
0.195777
0.164272
0.140968
0.123189
0.109308
0.0982291
0.0892486
0.0818434
0.0756374
0.0703218
0.0656891
0.0616255
0.058018
0.0547961
0.0518931
0.0492598
0.0468525
0.0446359
0.0425997
0.0407046
0.195903
0.164459
0.141177
0.123399
0.109502
0.09841
0.0894114
0.0819845
0.0757499
0.0704063
0.0657493
0.0616611
0.0580315
0.0547913
0.0518698
0.0492178
0.0467941
0.0445625
0.0425126
0.040604
0.195974
0.164548
0.141253
0.123447
0.109508
0.0983798
0.0893433
0.0818849
0.0756081
0.0702241
0.0655263
0.0614011
0.0577344
0.0544675
0.0515176
0.0488395
0.0463924
0.04414
0.0420717
0.0401471
0.224579
0.17844
0.150274
0.15519
0.493344
1.05446
0.211887
0.171297
0.143967
0.124696
0.116172
0.119722
0.227668
0.70249
1.70388
2.14299
2.16997
2.2709
2.28937
2.1715
0.193334
0.161016
0.137558
0.119957
0.106951
0.100682
0.137433
0.293089
2.44342
1.84068
1.6747
1.44855
0.882412
0.853104
0.702402
0.193444
0.161052
0.137542
0.119901
0.106604
0.0978562
0.108461
0.15439
0.297581
0.576063
1.42495
0.398504
0.331081
0.280961
0.240839
0.216561
0.200804
0.186105
0.193675
0.161305
0.137744
0.120008
0.106506
0.0968111
0.0961552
0.117556
0.158961
0.201131
0.222574
0.211722
0.152768
0.135941
0.120563
0.108081
0.0979074
0.0898383
0.0832975
0.0779854
0.193926
0.161623
0.13805
0.120253
0.106615
0.0964043
0.0911917
0.0969831
0.105835
0.111977
0.10963
0.103963
0.0951866
0.0874914
0.080495
0.0745493
0.0694769
0.0651445
0.0613739
0.0580945
0.194172
0.161954
0.138393
0.120568
0.106847
0.0963821
0.0891659
0.0875747
0.0886561
0.0891223
0.0857909
0.081367
0.0757619
0.0708904
0.0663716
0.0623727
0.0588513
0.0557144
0.0528877
0.050341
0.194405
0.162277
0.138741
0.120906
0.107138
0.0965108
0.0884642
0.083601
0.0807289
0.0782596
0.0747179
0.0709408
0.0667913
0.0630375
0.0595321
0.0563342
0.0534448
0.0508041
0.048389
0.0461808
0.194622
0.162585
0.139078
0.121243
0.107442
0.096706
0.0882783
0.0821058
0.0774869
0.073633
0.0698007
0.0661189
0.0625621
0.0590595
0.0559884
0.053142
0.0505373
0.0481296
0.0459143
0.0438748
0.194824
0.162875
0.139399
0.121568
0.107741
0.0969229
0.0883008
0.0815753
0.0762058
0.0717046
0.0676153
0.0638518
0.0604197
0.0571582
0.0542219
0.0515005
0.0490067
0.046699
0.0445734
0.0426083
0.195012
0.163147
0.139702
0.121877
0.10803
0.0971411
0.0884059
0.0814049
0.0756945
0.0708719
0.0666008
0.0627296
0.0593041
0.0561046
0.0532242
0.0505604
0.0481191
0.0458612
0.043782
0.0418548
0.195186
0.163401
0.139987
0.12217
0.10831
0.0973731
0.0885564
0.0813915
0.0754965
0.0704893
0.0660939
0.0621923
0.0586978
0.05551
0.0526432
0.0500046
0.0475877
0.0453542
0.043298
0.041388
0.195349
0.163639
0.140251
0.122442
0.108582
0.0975997
0.0887266
0.081461
0.075444
0.0703149
0.0658286
0.0618718
0.0583415
0.0551496
0.0522814
0.0496499
0.0472432
0.0450219
0.0429784
0.0410785
0.195501
0.163863
0.140507
0.122714
0.108865
0.0978262
0.088901
0.0815673
0.0754644
0.0702546
0.0656946
0.0616926
0.0581315
0.0549309
0.052055
0.0494317
0.0470278
0.0448115
0.0427748
0.04088
0.195644
0.164074
0.140745
0.122961
0.109101
0.0980327
0.0890744
0.0817011
0.0755364
0.0702661
0.0656566
0.0616233
0.0580364
0.0548247
0.0519334
0.0493083
0.0469053
0.0446912
0.0426567
0.0407632
0.195778
0.164273
0.140968
0.123188
0.109308
0.0982287
0.0892482
0.0818432
0.0756374
0.0703221
0.0656892
0.0616254
0.0580177
0.0547956
0.0518934
0.0492606
0.0468526
0.0446355
0.0425994
0.0407044
0.195905
0.16446
0.141177
0.123398
0.109502
0.0984099
0.0894113
0.0819846
0.0757501
0.0704062
0.0657492
0.0616612
0.0580315
0.0547911
0.0518701
0.0492182
0.0467941
0.0445622
0.0425124
0.040604
0.195975
0.164549
0.141253
0.123446
0.109508
0.0983797
0.0893432
0.081885
0.0756082
0.0702241
0.0655265
0.0614012
0.0577341
0.0544674
0.0515178
0.0488394
0.0463922
0.0441399
0.0420717
0.0401471
0.224582
0.17883
0.150981
0.151148
0.492025
1.06985
0.211887
0.171298
0.143965
0.124564
0.115552
0.118721
0.227763
0.753655
1.72522
2.11695
2.15003
2.25806
2.27603
2.16521
0.193331
0.16101
0.137552
0.119949
0.106937
0.100552
0.136821
0.299035
2.47931
1.80477
1.6539
1.44781
0.883876
0.853783
0.700195
0.193445
0.161052
0.137541
0.119899
0.106603
0.0978302
0.107994
0.153507
0.295037
0.592224
1.44927
0.397154
0.32772
0.278426
0.239937
0.216487
0.200896
0.186173
0.193676
0.161305
0.137744
0.120008
0.106506
0.0968082
0.0959999
0.116732
0.156444
0.196094
0.216696
0.207207
0.151603
0.13573
0.120756
0.10842
0.0982507
0.0900865
0.0834171
0.0780115
0.193926
0.161623
0.13805
0.120253
0.106615
0.096405
0.091162
0.0966958
0.105174
0.111111
0.109041
0.103685
0.0951148
0.0875637
0.0806123
0.0746603
0.0695598
0.0651896
0.0613842
0.0580839
0.194172
0.161954
0.138393
0.120568
0.106847
0.0963842
0.0891646
0.087511
0.0885014
0.0889557
0.0857172
0.0813665
0.0757946
0.0709405
0.0664327
0.0624176
0.0588717
0.0557166
0.0528808
0.0503319
0.194405
0.162278
0.138741
0.120906
0.107138
0.0965126
0.0884648
0.0835906
0.0807043
0.0782416
0.0747181
0.0709494
0.0667998
0.0630511
0.0595498
0.0563446
0.0534465
0.0508019
0.0483859
0.0461779
0.194623
0.162586
0.139078
0.121243
0.107442
0.0967072
0.0882781
0.0821036
0.0774835
0.073632
0.0698017
0.0661191
0.0625639
0.0590595
0.0559917
0.0531443
0.0505371
0.0481286
0.0459135
0.0438741
0.194825
0.162875
0.139399
0.121568
0.107741
0.0969239
0.0883004
0.081574
0.0762043
0.0717037
0.0676145
0.0638487
0.0604205
0.0571596
0.0542259
0.0515031
0.0490069
0.0466983
0.0445729
0.042608
0.195013
0.163147
0.139702
0.121877
0.10803
0.0971426
0.0884059
0.0814036
0.0756931
0.0708707
0.0666
0.0627297
0.0593027
0.0561017
0.0532241
0.0505612
0.0481192
0.0458611
0.0437819
0.0418548
0.195187
0.163402
0.139987
0.12217
0.108309
0.0973732
0.0885566
0.0813909
0.0754957
0.0704885
0.0660933
0.0621916
0.0586973
0.0555091
0.0526443
0.0500059
0.0475879
0.0453539
0.0432977
0.0413877
0.19535
0.16364
0.140252
0.122443
0.108583
0.0975993
0.0887254
0.0814598
0.0754433
0.0703146
0.0658284
0.0618715
0.0583412
0.0551487
0.0522819
0.0496509
0.0472436
0.0450217
0.0429782
0.0410782
0.195502
0.163864
0.140507
0.122714
0.108864
0.0978258
0.0889007
0.0815672
0.0754643
0.0702546
0.0656945
0.0616923
0.0581312
0.0549301
0.0520539
0.0494324
0.0470288
0.044812
0.0427748
0.0408798
0.195645
0.164075
0.140745
0.122961
0.109102
0.0980325
0.089074
0.0817008
0.0755363
0.0702661
0.0656567
0.0616233
0.0580362
0.0548241
0.0519335
0.0493091
0.0469057
0.0446911
0.0426564
0.0407629
0.195779
0.164274
0.140969
0.123188
0.109308
0.0982285
0.0892478
0.0818431
0.0756374
0.0703222
0.0656893
0.0616254
0.0580174
0.0547951
0.0518935
0.0492612
0.0468528
0.0446354
0.0425991
0.0407042
0.195905
0.164461
0.141177
0.123398
0.109502
0.0984097
0.0894111
0.0819846
0.0757503
0.0704062
0.0657492
0.0616613
0.0580314
0.0547909
0.0518702
0.0492185
0.0467942
0.0445621
0.0425122
0.0406039
0.195976
0.16455
0.141253
0.123446
0.109508
0.0983795
0.0893432
0.0818851
0.0756082
0.0702242
0.0655266
0.0614013
0.0577339
0.0544672
0.0515178
0.0488394
0.046392
0.0441398
0.0420717
0.0401472
0.224584
0.179049
0.152174
0.15087
0.499508
1.07704
0.211887
0.171299
0.143967
0.124476
0.11497
0.117651
0.229058
0.796561
1.76544
2.10358
2.1267
2.24465
2.26109
2.15411
0.193329
0.161006
0.137548
0.119942
0.106918
0.100436
0.13684
0.308308
2.52489
1.79006
1.63273
1.44587
0.885462
0.854139
0.697821
0.193445
0.161052
0.137541
0.119898
0.106601
0.0978049
0.10771
0.153841
0.297948
0.615596
1.45852
0.396381
0.325273
0.275988
0.238712
0.216176
0.20086
0.186145
0.193676
0.161305
0.137744
0.120007
0.106506
0.0968045
0.0958692
0.116188
0.154997
0.19273
0.211604
0.202793
0.150101
0.135163
0.120693
0.108605
0.0985251
0.0903301
0.0835613
0.078062
0.193926
0.161623
0.13805
0.120253
0.106615
0.0964053
0.0911296
0.0964446
0.10457
0.110225
0.10833
0.103261
0.0949402
0.0875596
0.0806863
0.0747541
0.0696421
0.0652431
0.0614051
0.0580802
0.194172
0.161954
0.138393
0.120568
0.106847
0.0963857
0.0891611
0.0874434
0.0883304
0.0887444
0.0855901
0.0813208
0.0758003
0.0709749
0.0664825
0.0624606
0.0588969
0.055725
0.0528782
0.050324
0.194405
0.162278
0.138741
0.120906
0.107138
0.096514
0.0884653
0.0835782
0.0806716
0.0782087
0.0747061
0.0709504
0.0668041
0.0630614
0.0595645
0.0563553
0.0534503
0.0508011
0.0483833
0.0461748
0.194623
0.162586
0.139079
0.121243
0.107442
0.0967083
0.0882784
0.0821015
0.0774788
0.0736283
0.0698009
0.0661184
0.0625644
0.0590594
0.0559939
0.0531467
0.0505376
0.048128
0.0459128
0.0438732
0.194825
0.162876
0.1394
0.121568
0.107741
0.0969247
0.0883005
0.0815733
0.0762031
0.0717026
0.0676138
0.063846
0.0604199
0.0571601
0.0542286
0.0515055
0.0490077
0.0466981
0.0445725
0.0426076
0.195013
0.163148
0.139703
0.121878
0.10803
0.0971438
0.0884063
0.0814029
0.0756921
0.0708696
0.0665991
0.0627296
0.0593015
0.0560994
0.0532234
0.0505615
0.0481194
0.0458611
0.0437819
0.0418547
0.195188
0.163402
0.139988
0.12217
0.10831
0.0973734
0.0885569
0.0813906
0.0754951
0.0704878
0.0660928
0.0621909
0.0586965
0.0555082
0.0526448
0.0500069
0.0475884
0.0453539
0.0432975
0.0413874
0.19535
0.163641
0.140254
0.122445
0.108584
0.0975993
0.0887248
0.081459
0.0754426
0.0703142
0.0658281
0.0618713
0.0583409
0.055148
0.052282
0.0496517
0.0472441
0.0450218
0.042978
0.041078
0.195502
0.163865
0.140508
0.122714
0.108864
0.0978254
0.0889005
0.081567
0.0754643
0.0702545
0.0656944
0.0616922
0.0581309
0.0549295
0.0520531
0.0494326
0.0470296
0.0448126
0.042775
0.0408796
0.195645
0.164076
0.140745
0.122961
0.109102
0.0980323
0.0890737
0.0817006
0.0755362
0.0702661
0.0656567
0.0616232
0.0580361
0.0548236
0.0519334
0.0493096
0.0469061
0.0446911
0.0426563
0.0407627
0.195779
0.164275
0.140969
0.123188
0.109308
0.0982285
0.0892475
0.0818429
0.0756374
0.0703223
0.0656894
0.0616254
0.0580172
0.0547947
0.0518934
0.0492615
0.0468531
0.0446354
0.0425989
0.040704
0.195906
0.164462
0.141177
0.123398
0.109502
0.0984096
0.0894111
0.0819846
0.0757503
0.0704062
0.0657492
0.0616613
0.0580314
0.0547908
0.0518702
0.0492188
0.0467943
0.044562
0.0425121
0.0406037
0.195976
0.164551
0.141253
0.123446
0.109508
0.0983794
0.089343
0.0818851
0.0756082
0.0702242
0.0655267
0.0614015
0.0577339
0.0544671
0.0515177
0.0488393
0.0463919
0.0441397
0.0420717
0.0401472
0.224584
0.179155
0.153217
0.152527
0.512879
1.08685
0.211886
0.1713
0.143972
0.124431
0.114529
0.116612
0.230491
0.829138
1.81398
2.11117
2.10455
2.23046
2.24514
2.13975
0.193328
0.161003
0.137545
0.119936
0.106898
0.100328
0.137265
0.318629
2.56109
1.79637
1.61322
1.44288
0.887454
0.85448
0.695454
0.193445
0.161052
0.137541
0.119897
0.106598
0.0977803
0.107594
0.155116
0.304994
0.64426
1.48313
0.396536
0.323682
0.273847
0.237318
0.215686
0.200723
0.186035
0.193676
0.161305
0.137744
0.120007
0.106505
0.0968005
0.0957747
0.115968
0.154645
0.191234
0.207984
0.198558
0.148382
0.134322
0.120393
0.108624
0.0987063
0.0905455
0.0837171
0.0781334
0.193926
0.161624
0.138051
0.120253
0.106615
0.0964054
0.0910994
0.0962588
0.104087
0.109424
0.107585
0.102737
0.0946703
0.0874781
0.08071
0.0748223
0.0697168
0.0653005
0.0614353
0.0580843
0.194172
0.161955
0.138394
0.120568
0.106848
0.0963869
0.0891563
0.0873803
0.0881632
0.0885138
0.0854248
0.0812356
0.075777
0.0709901
0.0665195
0.0624994
0.0589243
0.0557382
0.0528801
0.0503185
0.194405
0.162278
0.138742
0.120906
0.107139
0.0965151
0.0884657
0.0835648
0.0806342
0.0781644
0.0746824
0.0709434
0.0668037
0.0630679
0.0595762
0.0563658
0.0534555
0.0508019
0.0483817
0.0461718
0.194623
0.162586
0.139079
0.121243
0.107442
0.0967091
0.0882789
0.0820994
0.0774728
0.0736222
0.0697983
0.0661168
0.0625639
0.059059
0.0559952
0.0531487
0.0505384
0.0481278
0.0459123
0.0438724
0.194826
0.162876
0.1394
0.121568
0.107742
0.0969254
0.0883009
0.081573
0.076202
0.0717014
0.0676131
0.0638438
0.0604186
0.0571598
0.0542302
0.0515076
0.0490086
0.0466982
0.0445724
0.0426073
0.195013
0.163148
0.139703
0.121878
0.10803
0.0971447
0.0884069
0.0814027
0.0756914
0.0708687
0.0665984
0.0627293
0.0593005
0.0560973
0.0532224
0.0505615
0.0481195
0.0458611
0.043782
0.0418546
0.195188
0.163403
0.139988
0.12217
0.10831
0.0973737
0.0885572
0.0813906
0.0754948
0.0704873
0.0660924
0.0621904
0.0586958
0.0555073
0.0526448
0.0500077
0.047589
0.0453541
0.0432975
0.0413872
0.19535
0.163641
0.140255
0.122446
0.108585
0.0975996
0.0887245
0.0814584
0.0754421
0.0703137
0.0658279
0.0618711
0.0583407
0.0551473
0.0522818
0.0496521
0.0472445
0.045022
0.042978
0.0410778
0.195503
0.163865
0.140508
0.122714
0.108864
0.0978253
0.0889003
0.0815668
0.0754642
0.0702544
0.0656944
0.0616921
0.0581306
0.0549289
0.0520523
0.0494326
0.0470301
0.0448131
0.0427753
0.0408797
0.195645
0.164076
0.140746
0.122961
0.109102
0.0980324
0.0890735
0.0817004
0.0755361
0.070266
0.0656567
0.0616232
0.058036
0.0548232
0.0519331
0.0493098
0.0469064
0.0446912
0.0426562
0.0407626
0.19578
0.164275
0.140969
0.123188
0.109309
0.0982285
0.0892474
0.0818428
0.0756373
0.0703223
0.0656895
0.0616254
0.0580171
0.0547944
0.0518933
0.0492618
0.0468534
0.0446354
0.0425988
0.0407039
0.195906
0.164462
0.141178
0.123398
0.109502
0.0984095
0.089411
0.0819846
0.0757504
0.0704062
0.0657492
0.0616613
0.0580314
0.0547907
0.0518701
0.0492189
0.0467944
0.044562
0.042512
0.0406036
0.195977
0.164551
0.141253
0.123446
0.109507
0.0983793
0.089343
0.081885
0.0756082
0.0702243
0.0655268
0.0614016
0.0577339
0.054467
0.0515177
0.0488393
0.0463919
0.0441396
0.0420717
0.0401472
0.224584
0.179203
0.153925
0.154724
0.528705
1.10241
0.211886
0.1713
0.143977
0.12442
0.114275
0.115726
0.231498
0.851927
1.86136
2.14054
2.091
2.2163
2.22848
2.12367
0.193327
0.161002
0.137543
0.119932
0.106879
0.100227
0.137871
0.328476
2.58929
1.81854
1.59722
1.4384
0.88993
0.855139
0.693351
0.193445
0.161052
0.13754
0.119897
0.106595
0.0977561
0.107605
0.15696
0.31423
0.671972
1.51719
0.398367
0.323127
0.272185
0.23591
0.215072
0.200516
0.185872
0.193676
0.161306
0.137744
0.120007
0.106505
0.0967961
0.0957182
0.116064
0.155295
0.191464
0.206325
0.194877
0.146528
0.133291
0.119902
0.108483
0.0987802
0.090711
0.0838676
0.0782184
0.193926
0.161624
0.138051
0.120253
0.106615
0.0964052
0.0910746
0.0961561
0.103767
0.10879
0.106884
0.102168
0.0943244
0.087324
0.0806807
0.0748586
0.0697774
0.0653578
0.0614724
0.0580961
0.194172
0.161955
0.138394
0.120568
0.106848
0.0963877
0.0891512
0.0873289
0.0880173
0.0882875
0.0852378
0.0811196
0.0757259
0.0709845
0.0665421
0.0625313
0.0589512
0.0557548
0.052886