/*--------------------------------*- C++ -*----------------------------------*\
  =========                 |
  \\      /  F ield         | OpenFOAM: The Open Source CFD Toolbox
   \\    /   O peration     | Website:  https://openfoam.org
    \\  /    A nd           | Version:  10
     \\/     M anipulation  |
\*---------------------------------------------------------------------------*/
FoamFile
{
    format      ascii;
    class       volScalarField;
    location    "2000";
    object      omega;
}
// * * * * * * * * * * * * * * * * * * * * * * * * * * * * * * * * * * * * * //

dimensions      [0 0 -1 0 0 0 0];

internalField   nonuniform List<scalar> 
52338
(
1.69559
2.10992
2.81339
4.11118
6.11646
8.55959
1.58207
1.29359
1.0966
0.968859
0.938179
1.00868
1.81691
6.19534
4.36658
3.65002
2.893
2.38594
2.32241
2.02778
1.45287
1.22256
1.05156
0.920717
0.821161
0.768324
0.927294
1.95568
10.2017
3.34779
2.4968
1.99452
1.41152
1.33104
1.10151
1.45438
1.22437
1.05435
0.924145
0.822749
0.748839
0.763449
1.00219
2.22738
9.70492
5.99993
2.66274
1.39006
1.16078
0.989147
0.873823
0.78989
0.717421
1.45679
1.22766
1.05808
0.928089
0.82631
0.747677
0.70971
0.761643
0.967349
1.2498
1.49465
1.30314
1.03365
0.748582
0.677305
0.614777
0.563465
0.522123
0.486999
0.456868
1.45909
1.23092
1.0618
0.932035
0.830251
0.750177
0.694686
0.683099
0.692983
0.700507
0.676267
0.640415
0.594015
0.547513
0.509501
0.476763
0.448494
0.423765
0.401676
0.381911
1.46117
1.23394
1.06529
0.9358
0.834149
0.753703
0.691962
0.654565
0.632535
0.61366
0.585682
0.554033
0.520962
0.49119
0.462225
0.437617
0.415202
0.394781
0.376157
0.359231
1.46306
1.23672
1.06852
0.939298
0.837827
0.757338
0.69333
0.645502
0.609802
0.580038
0.550537
0.521711
0.493542
0.467451
0.443207
0.42108
0.400765
0.382069
0.364897
0.349152
1.46478
1.23926
1.07148
0.94251
0.841181
0.760689
0.69563
0.643995
0.602716
0.568256
0.537211
0.508614
0.481982
0.457114
0.434272
0.413243
0.39387
0.375944
0.35941
0.344178
1.46634
1.24158
1.0742
0.945451
0.844221
0.763614
0.698111
0.644921
0.601277
0.564614
0.532377
0.503454
0.476877
0.452557
0.430297
0.409688
0.390668
0.373043
0.356759
0.341718
1.46778
1.24372
1.07669
0.948147
0.846985
0.766101
0.700537
0.6465
0.60171
0.563881
0.530795
0.500963
0.474908
0.450535
0.428335
0.407839
0.388964
0.371489
0.355338
0.340391
1.46909
1.2457
1.07899
0.950626
0.849533
0.768766
0.702566
0.648186
0.602761
0.564187
0.530487
0.500672
0.473862
0.449495
0.427349
0.406925
0.38812
0.370709
0.354614
0.339697
1.47031
1.24753
1.0809
0.952882
0.851881
0.771137
0.704802
0.649834
0.603984
0.564879
0.530717
0.500573
0.473554
0.449088
0.426899
0.406477
0.38769
0.370309
0.354245
0.339344
1.47144
1.24924
1.08316
0.955088
0.854372
0.773045
0.706649
0.651475
0.605282
0.565786
0.531241
0.500825
0.473617
0.449051
0.42693
0.406303
0.387562
0.370215
0.354173
0.339276
1.47249
1.25083
1.08501
0.957073
0.856272
0.774971
0.708425
0.653095
0.606634
0.566816
0.532009
0.501406
0.474038
0.449373
0.427
0.406591
0.387782
0.370399
0.354343
0.339432
1.47348
1.25232
1.08674
0.958889
0.858005
0.776706
0.710085
0.654647
0.60798
0.567901
0.532966
0.502166
0.474663
0.449914
0.427472
0.407011
0.388168
0.370765
0.354696
0.339768
1.47441
1.25373
1.08835
0.960573
0.859662
0.778292
0.711621
0.656119
0.609296
0.569122
0.533993
0.503057
0.475431
0.450584
0.428047
0.40749
0.388569
0.371103
0.354978
0.339992
1.47513
1.25477
1.08949
0.961686
0.860634
0.779152
0.712369
0.656779
0.609821
0.569431
0.534151
0.503061
0.475267
0.450286
0.42762
0.406945
0.387919
0.370367
0.354168
0.339112
1.68225
1.70972
2.12439
2.76225
5.39311
6.11027
1.58204
1.29297
1.09514
0.962974
0.919398
0.964568
1.53337
4.17837
4.36841
3.6355
2.87409
2.37665
2.3322
2.0441
1.45273
1.22227
1.05152
0.920721
0.821163
0.766474
0.914722
1.79838
8.82356
3.34612
2.51315
2.00694
1.41132
1.32868
1.10164
1.45443
1.22433
1.05436
0.924155
0.822757
0.748867
0.761646
0.949101
2.02206
5.66845
5.94878
1.79315
1.4157
1.16621
0.990684
0.874417
0.790193
0.717852
1.45686
1.22764
1.05809
0.928091
0.82631
0.74771
0.709453
0.764038
0.958844
1.2114
1.33831
1.25184
0.859639
0.750257
0.678104
0.615664
0.564004
0.52231
0.48702
0.456879
1.45915
1.2309
1.06181
0.932037
0.830255
0.750226
0.694709
0.683553
0.693904
0.700761
0.674182
0.636786
0.589965
0.545949
0.509512
0.47699
0.448628
0.423798
0.401662
0.381903
1.46124
1.23393
1.0653
0.935802
0.83416
0.753766
0.692003
0.654549
0.632651
0.613622
0.58445
0.553151
0.519752
0.489678
0.461439
0.437334
0.415124
0.394768
0.37616
0.359241
1.46313
1.23671
1.06853
0.939301
0.837842
0.757418
0.693371
0.645523
0.609796
0.579991
0.550084
0.521344
0.492995
0.466718
0.442654
0.420903
0.400734
0.382075
0.364907
0.34916
1.46484
1.23925
1.07149
0.942512
0.841196
0.760737
0.695707
0.644029
0.602722
0.568255
0.537059
0.508468
0.481839
0.456778
0.43395
0.413136
0.393855
0.375951
0.359416
0.344183
1.4664
1.24157
1.0742
0.945453
0.844234
0.763656
0.698184
0.64495
0.601295
0.564632
0.532329
0.503342
0.476758
0.452419
0.430057
0.409589
0.390644
0.373042
0.356762
0.34172
1.46783
1.24371
1.07669
0.948149
0.846996
0.766161
0.700547
0.646513
0.60173
0.563898
0.530779
0.500888
0.474827
0.450456
0.428159
0.407767
0.388949
0.37149
0.355341
0.340394
1.46915
1.24569
1.079
0.950627
0.849543
0.768764
0.702628
0.648159
0.602764
0.564194
0.53048
0.500659
0.473831
0.449439
0.427193
0.406845
0.388096
0.370706
0.354615
0.339699
1.47036
1.24752
1.08098
0.952862
0.851902
0.771084
0.704813
0.64986
0.603993
0.564885
0.530713
0.500566
0.473529
0.449047
0.426766
0.406387
0.387659
0.370303
0.354245
0.339346
1.47149
1.24923
1.08314
0.955095
0.854369
0.773094
0.706665
0.651495
0.605289
0.565788
0.531238
0.500821
0.473595
0.449022
0.426806
0.40623
0.387523
0.3702
0.354169
0.339276
1.47254
1.25082
1.08499
0.957081
0.856287
0.77501
0.708445
0.653116
0.606641
0.566819
0.532007
0.501404
0.47402
0.449352
0.426914
0.406495
0.387748
0.370392
0.354343
0.339434
1.47353
1.25232
1.08672
0.958895
0.85801
0.776728
0.7101
0.654664
0.607985
0.567913
0.532958
0.502164
0.474649
0.4499
0.42741
0.40694
0.388144
0.370761
0.354697
0.33977
1.47446
1.25372
1.08833
0.960576
0.859667
0.778296
0.711627
0.65613
0.609303
0.569113
0.533997
0.503056
0.475419
0.450573
0.428003
0.407443
0.388555
0.371101
0.354979
0.339993
1.47518
1.25477
1.08947
0.961688
0.860636
0.779154
0.712371
0.656787
0.609815
0.569432
0.534154
0.503057
0.475257
0.450284
0.427605
0.406928
0.387916
0.370368
0.35417
0.339112
1.67924
1.55268
1.89609
2.44134
4.81307
5.63985
1.58207
1.29275
1.09471
0.963392
0.923401
0.962013
1.50174
3.67449
4.36596
3.62402
2.85585
2.36252
2.33187
2.05626
1.45265
1.22212
1.05145
0.920697
0.821224
0.76553
0.912231
1.75565
8.8867
3.34609
2.52194
2.01834
1.41174
1.32728
1.1009
1.45446
1.2243
1.05434
0.924131
0.822749
0.748933
0.762371
0.963124
1.8758
4.63866
5.73086
1.79024
1.42758
1.17284
0.993358
0.875278
0.790443
0.718135
1.45691
1.22763
1.05807
0.928066
0.826284
0.747751
0.709959
0.767136
0.964688
1.22099
1.33296
1.22155
0.857979
0.75828
0.680247
0.616905
0.564722
0.52261
0.487097
0.456913
1.4592
1.23089
1.06179
0.932014
0.830231
0.750255
0.694852
0.684615
0.69549
0.702491
0.673966
0.635935
0.589348
0.54683
0.509761
0.477243
0.448794
0.423866
0.401667
0.381899
1.46128
1.23392
1.06529
0.935783
0.834145
0.753844
0.691965
0.654719
0.633025
0.614073
0.584344
0.55306
0.519691
0.489763
0.461867
0.437307
0.41507
0.394746
0.376155
0.359246
1.46317
1.2367
1.06851
0.939284
0.837833
0.757466
0.693277
0.645519
0.609855
0.580092
0.550017
0.521263
0.492928
0.466801
0.442766
0.42085
0.400702
0.382071
0.36491
0.349166
1.46488
1.23924
1.07147
0.942499
0.84119
0.760765
0.695631
0.644015
0.602724
0.568282
0.537036
0.508445
0.481935
0.456665
0.433994
0.413103
0.393837
0.37595
0.359419
0.344185
1.46644
1.24157
1.07419
0.945442
0.84423
0.763682
0.698125
0.644932
0.601295
0.564645
0.532322
0.503245
0.476866
0.452405
0.430101
0.40956
0.390621
0.373035
0.356761
0.341722
1.46787
1.24371
1.07669
0.948139
0.846992
0.76622
0.700479
0.64648
0.601736
0.563908
0.530778
0.50096
0.474756
0.450408
0.428192
0.407752
0.388936
0.371487
0.355342
0.340396
1.46918
1.24569
1.07899
0.950619
0.849541
0.768755
0.702644
0.648128
0.602765
0.564196
0.530477
0.500659
0.473829
0.449417
0.427215
0.406831
0.388079
0.3707
0.354614
0.3397
1.4704
1.24752
1.08102
0.952854
0.851909
0.771038
0.704795
0.649857
0.604001
0.564887
0.530711
0.500567
0.473524
0.449028
0.42678
0.406376
0.387642
0.370295
0.354243
0.339346
1.47153
1.24923
1.08312
0.955092
0.85435
0.773101
0.706665
0.651498
0.605292
0.565786
0.531236
0.500821
0.473589
0.449006
0.426762
0.406269
0.387518
0.37019
0.354163
0.339274
1.47258
1.25082
1.08497
0.957079
0.8563
0.77499
0.708442
0.653122
0.606642
0.56682
0.532007
0.501404
0.474013
0.44934
0.426918
0.406492
0.387733
0.370384
0.354342
0.339435
1.47357
1.25232
1.0867
0.958893
0.858024
0.77671
0.710097
0.654669
0.607986
0.567919
0.532955
0.502163
0.474643
0.449895
0.427414
0.406935
0.388132
0.370756
0.354696
0.339771
1.47449
1.25372
1.08831
0.960573
0.859667
0.778294
0.711627
0.656135
0.609306
0.569106
0.534
0.503058
0.475414
0.450572
0.428006
0.407437
0.388547
0.371098
0.354979
0.339994
1.47521
1.25477
1.08945
0.961684
0.860635
0.779154
0.712371
0.656791
0.609813
0.569432
0.534159
0.503058
0.47525
0.450288
0.427606
0.40692
0.387913
0.370368
0.354171
0.339113
1.67829
1.46508
1.7163
2.21764
4.6471
5.55392
1.58208
1.29258
1.09423
0.962739
0.925857
0.957604
1.4693
3.40908
4.35659
3.61395
2.84077
2.34716
2.325
2.06314
1.45258
1.222
1.05137
0.920667
0.821277
0.76468
0.907045
1.66343
9.02804
3.35208
2.52646
2.02706
1.41261
1.32652
1.09938
1.45448
1.22428
1.05432
0.92411
0.822746
0.748899
0.761995
0.961064
1.76828
4.56598
5.55311
1.77165
1.42791
1.17698
0.99609
0.876277
0.790611
0.718233
1.45693
1.22762
1.05806
0.928047
0.826266
0.747772
0.710189
0.767913
0.95825
1.21148
1.32532
1.2053
0.856008
0.761931
0.682391
0.618274
0.565566
0.523002
0.48721
0.456948
1.45922
1.23088
1.06178
0.931996
0.830213
0.750275
0.694959
0.68529
0.696398
0.703778
0.67434
0.635546
0.588818
0.5472
0.51002
0.477477
0.448965
0.42395
0.401683
0.381895
1.4613
1.23391
1.06527
0.935767
0.834132
0.753895
0.691962
0.654876
0.633326
0.614481
0.584425
0.553017
0.51961
0.489811
0.462169
0.437376
0.415055
0.394726
0.376143
0.359244
1.46319
1.2367
1.0685
0.939271
0.837824
0.757499
0.693224
0.645514
0.609898
0.580178
0.550002
0.52121
0.492862
0.466855
0.442877
0.420847
0.400682
0.382063
0.364909
0.349169
1.4649
1.23924
1.07147
0.942488
0.841183
0.760785
0.695584
0.643994
0.602719
0.568297
0.537026
0.508427
0.481984
0.456621
0.434039
0.413096
0.393823
0.375947
0.35942
0.344187
1.46646
1.24157
1.07418
0.945432
0.844226
0.7637
0.698089
0.644909
0.601286
0.564651
0.532319
0.50318
0.476916
0.452413
0.430159
0.409559
0.390607
0.373027
0.356758
0.341721
1.46789
1.24371
1.07668
0.948132
0.846988
0.766257
0.700442
0.646448
0.601731
0.563912
0.530779
0.501007
0.474723
0.450369
0.428225
0.407754
0.388928
0.371483
0.355342
0.340396
1.46921
1.24569
1.07898
0.950613
0.849538
0.768749
0.702651
0.648109
0.602762
0.564197
0.530476
0.500659
0.473829
0.449404
0.427246
0.406834
0.388069
0.370692
0.354612
0.339699
1.47042
1.24753
1.08105
0.952857
0.851915
0.771009
0.704776
0.64985
0.604005
0.564889
0.530711
0.500567
0.473521
0.449016
0.426804
0.406383
0.387634
0.370287
0.35424
0.339346
1.47155
1.24923
1.08311
0.955088
0.854337
0.773101
0.706665
0.651499
0.605294
0.565786
0.531234
0.50082
0.473586
0.448995
0.426745
0.406301
0.387525
0.370185
0.354158
0.339271
1.4726
1.25083
1.08496
0.957076
0.856308
0.774977
0.708437
0.653124
0.606644
0.56682
0.532007
0.501404
0.474009
0.449332
0.426929
0.406502
0.387728
0.370377
0.354339
0.339435
1.47359
1.25232
1.08669
0.958889
0.858032
0.7767
0.710093
0.654672
0.607987
0.567923
0.532954
0.50216
0.474638
0.44989
0.427421
0.406943
0.388128
0.37075
0.354694
0.339771
1.47451
1.25373
1.0883
0.960569
0.859666
0.778292
0.711626
0.656137
0.609309
0.569103
0.534001
0.503059
0.47541
0.45057
0.428011
0.407439
0.388543
0.371095
0.354978
0.339994
1.47523
1.25478
1.08944
0.96168
0.860633
0.779154
0.712371
0.656794
0.609812
0.569431
0.534162
0.503059
0.475246
0.45029
0.427609
0.406917
0.387911
0.370367
0.354171
0.339114
1.67803
1.42203
1.58877
2.06111
4.61695
5.65492
1.58209
1.29246
1.09379
0.961325
0.926219
0.953379
1.43995
3.3648
4.34028
3.60181
2.82856
2.33238
2.31368
2.06427
1.45252
1.22191
1.0513
0.920631
0.821311
0.763945
0.901017
1.59469
8.83737
3.3558
2.5318
2.03421
1.41401
1.32631
1.09733
1.45449
1.22428
1.0543
0.924096
0.822746
0.74882
0.76091
0.951018
1.73123
4.75653
5.60724
1.75266
1.42182
1.17782
0.998149
0.877276
0.790758
0.71821
1.45695
1.22762
1.05805
0.928035
0.826256
0.747779
0.710187
0.766925
0.947894
1.19419
1.31203
1.1932
0.853436
0.763076
0.683846
0.619496
0.566445
0.523466
0.487368
0.456986
1.45923
1.23088
1.06177
0.931985
0.830203
0.750289
0.695026
0.68553
0.696484
0.70412
0.674641
0.635391
0.588442
0.547316
0.510211
0.477676
0.449129
0.424042
0.401706
0.38189
1.46131
1.23391
1.06527
0.935757
0.834124
0.753929
0.691978
0.654991
0.633506
0.614743
0.584553
0.553018
0.519551
0.489827
0.462364
0.437471
0.415071
0.394714
0.376128
0.359235
1.4632
1.2367
1.0685
0.939262
0.837819
0.757523
0.693202
0.645516
0.609927
0.580235
0.550004
0.521176
0.492811
0.466879
0.442957
0.420865
0.400671
0.382053
0.364905
0.349168
1.46492
1.23924
1.07146
0.942481
0.841179
0.760799
0.695559
0.643975
0.602708
0.568299
0.537017
0.508413
0.482009
0.456603
0.434068
0.413099
0.393813
0.375941
0.359418
0.344186
1.46648
1.24157
1.07418
0.945426
0.844222
0.763712
0.698069
0.644889
0.601274
0.564648
0.532315
0.503137
0.476935
0.452423
0.430202
0.409571
0.390599
0.37302
0.356755
0.34172
1.46791
1.24372
1.07668
0.948126
0.846985
0.766282
0.700425
0.646422
0.601721
0.563911
0.530778
0.501038
0.474712
0.45034
0.428241
0.407759
0.388923
0.37148
0.35534
0.340396
1.46922
1.2457
1.07898
0.950609
0.849535
0.768747
0.702655
0.648096
0.602756
0.564195
0.530474
0.500657
0.473828
0.449394
0.427266
0.406843
0.388064
0.370686
0.354608
0.339698
1.47044
1.24753
1.08108
0.952864
0.851921
0.770992
0.704759
0.64984
0.604005
0.56489
0.530711
0.500567
0.473518
0.449007
0.426818
0.406393
0.387631
0.370282
0.354236
0.339344
1.47156
1.24924
1.08311
0.955084
0.854328
0.773098
0.706663
0.651499
0.605295
0.565786
0.531233
0.500819
0.473583
0.448987
0.426731
0.406319
0.387535
0.370185
0.354155
0.339268
1.47262
1.25084
1.08496
0.957072
0.856312
0.774971
0.708432
0.653124
0.606645
0.566821
0.532007
0.501403
0.474007
0.449325
0.426936
0.406512
0.387727
0.370372
0.354335
0.339433
1.4736
1.25233
1.08668
0.958885
0.858036
0.776695
0.710089
0.654672
0.607988
0.567926
0.532954
0.50216
0.474635
0.449886
0.427427
0.406949
0.388126
0.370746
0.354692
0.33977
1.47453
1.25374
1.0883
0.960565
0.859665
0.778291
0.711625
0.656139
0.609311
0.569101
0.534001
0.503061
0.475408
0.450568
0.428015
0.407442
0.388541
0.371092
0.354977
0.339994
1.47525
1.25478
1.08943
0.961675
0.860631
0.779152
0.712371
0.656796
0.609811
0.56943
0.534164
0.50306
0.475243
0.45029
0.427611
0.406915
0.387909
0.370366
0.354171
0.339114
1.67796
1.40299
1.5105
1.9531
4.65912
5.76829
1.58209
1.29239
1.09342
0.959562
0.924643
0.949482
1.41835
3.43319
4.31556
3.58602
2.81734
2.3188
2.29994
2.05991
1.45248
1.22185
1.05125
0.920588
0.821319
0.763314
0.895576
1.56214
8.55675
3.34965
2.53862
2.04162
1.416
1.32655
1.0951
1.4545
1.22428
1.05429
0.924086
0.822748
0.748723
0.759507
0.940187
1.72534
4.87686
5.68331
1.74007
1.414
1.17609
0.999166
0.878116
0.790895
0.718059
1.45695
1.22763
1.05805
0.928029
0.826253
0.747778
0.710013
0.765042
0.939006
1.17802
1.29661
1.1822
0.850388
0.762755
0.684485
0.620381
0.567252
0.523975
0.487578
0.457039
1.45924
1.23089
1.06177
0.931979
0.830198
0.7503
0.695053
0.685422
0.695985
0.703572
0.674489
0.635212
0.588145
0.547301
0.51032
0.47783
0.449278
0.42414
0.40174
0.381885
1.46132
1.23392
1.06527
0.935752
0.834121
0.753953
0.691999
0.655053
0.633568
0.614844
0.584635
0.553031
0.51951
0.489825
0.462483
0.437562
0.415104
0.394713
0.376116
0.359222
1.46321
1.2367
1.0685
0.939258
0.837816
0.757542
0.693197
0.645523
0.609947
0.580267
0.550005
0.521149
0.49277
0.466885
0.443008
0.420889
0.400669
0.382046
0.364899
0.349163
1.46493
1.23925
1.07146
0.942477
0.841177
0.760811
0.695548
0.643962
0.602699
0.568293
0.537006
0.508397
0.482016
0.456594
0.434085
0.413106
0.393808
0.375935
0.359416
0.344185
1.46649
1.24158
1.07418
0.945423
0.84422
0.763722
0.698059
0.644875
0.601262
0.564641
0.532308
0.503104
0.476936
0.452429
0.430233
0.409587
0.390598
0.373014
0.356751
0.341717
1.46792
1.24372
1.07668
0.948124
0.846984
0.766299
0.70042
0.646405
0.601709
0.563905
0.530776
0.501057
0.474709
0.45032
0.428246
0.407765
0.388921
0.371476
0.355338
0.340395
1.46923
1.2457
1.07898
0.950607
0.849534
0.768746
0.702657
0.648089
0.602749
0.564191
0.530472
0.500655
0.473827
0.449388
0.427277
0.406852
0.388064
0.370682
0.354605
0.339696
1.47045
1.24754
1.08109
0.952873
0.851927
0.770983
0.704747
0.649831
0.604002
0.56489
0.53071
0.500566
0.473517
0.449001
0.426826
0.406402
0.387632
0.370278
0.354232
0.339341
1.47157
1.24925
1.08311
0.955081
0.854322
0.773095
0.706662
0.651499
0.605296
0.565786
0.531233
0.500818
0.473581
0.448981
0.426721
0.406329
0.387544
0.370187
0.354153
0.339265
1.47263
1.25084
1.08496
0.95707
0.856315
0.774967
0.708428
0.653123
0.606645
0.566821
0.532007
0.501403
0.474005
0.44932
0.426939
0.40652
0.387728
0.37037
0.354332
0.339432
1.47361
1.25234
1.08668
0.958883
0.858039
0.776692
0.710086
0.654671
0.607989
0.567928
0.532955
0.502159
0.474632
0.449882
0.427429
0.406955
0.388127
0.370744
0.354689
0.339769
1.47454
1.25374
1.0883
0.960562
0.859664
0.77829
0.711624
0.65614
0.609313
0.569101
0.534
0.503061
0.475407
0.450567
0.428017
0.407445
0.388541
0.37109
0.354976
0.339994
1.47526
1.25479
1.08943
0.961672
0.860629
0.779151
0.712371
0.656797
0.609812
0.56943
0.534166
0.503061
0.475241
0.450289
0.427612
0.406915
0.387907
0.370365
0.354171
0.339114
1.67794
1.39515
1.46689
1.8888
4.72222
5.8406
1.58209
1.29234
1.09312
0.957766
0.921918
0.945592
1.40491
3.50255
4.3079
3.57045
2.80544
2.30616
2.28545
2.05106
1.45246
1.2218
1.0512
0.920541
0.821293
0.762763
0.891294
1.55523
8.45048
3.33614
2.5438
2.0506
1.41877
1.32721
1.0928
1.4545
1.22428
1.05429
0.924079
0.822748
0.748622
0.758081
0.932207
1.73044
4.9257
5.72744
1.73405
1.40714
1.17297
0.999163
0.878704
0.791026
0.717851
1.45696
1.22763
1.05805
0.928027
0.826253
0.747771
0.709733
0.762954
0.932893
1.16669
1.28247
1.17159
0.846966
0.761534
0.684402
0.620853
0.567894
0.524477
0.487832
0.457116
1.45924
1.23089
1.06177
0.931978
0.830197
0.750308
0.695044
0.685086
0.69518
0.702483
0.673872
0.634855
0.587842
0.547202
0.510354
0.477936
0.449406
0.424238
0.401785
0.381887
1.46133
1.23392
1.06527
0.93575
0.83412
0.753971
0.692017
0.655061
0.633531
0.614811
0.584646
0.553027
0.519477
0.489815
0.462555
0.437639
0.415145
0.394725
0.37611
0.359208
1.46322
1.2367
1.0685
0.939256
0.837816
0.757556
0.693201
0.645531
0.60996
0.580285
0.550006
0.521125
0.492733
0.466879
0.44304
0.420912
0.400672
0.382042
0.364894
0.349157
1.46493
1.23925
1.07146
0.942476
0.841176
0.760821
0.695546
0.643956
0.602694
0.568287
0.536994
0.508379
0.482013
0.456587
0.434095
0.413113
0.393806
0.375932
0.359413
0.344182
1.46649
1.24158
1.07418
0.945422
0.84422
0.763729
0.698057
0.644867
0.601253
0.564633
0.5323
0.503079
0.476927
0.45243
0.430252
0.409603
0.390601
0.373012
0.356748
0.341714
1.46792
1.24373
1.07668
0.948123
0.846983
0.766311
0.70042
0.646395
0.601699
0.563898
0.530772
0.501068
0.474709
0.450307
0.428246
0.407769
0.38892
0.371474
0.355336
0.340393
1.46924
1.24571
1.07899
0.950607
0.849533
0.768747
0.702659
0.648085
0.602744
0.564187
0.530469
0.500653
0.473824
0.449383
0.427284
0.40686
0.388065
0.370679
0.354602
0.339693
1.47045
1.24755
1.0811
0.952882
0.851934
0.77098
0.704739
0.649823
0.603998
0.564889
0.53071
0.500566
0.473515
0.448995
0.426829
0.40641
0.387635
0.370276
0.35423
0.339339
1.47158
1.24925
1.08311
0.95508
0.854318
0.773092
0.70666
0.651498
0.605296
0.565786
0.531232
0.500817
0.473579
0.448976
0.426713
0.406333
0.387552
0.370191
0.354153
0.339264
1.47263
1.25085
1.08496
0.957069
0.856316
0.774965
0.708425
0.653122
0.606645
0.566821
0.532007
0.501403
0.474004
0.449316
0.42694
0.406525
0.387731
0.370368
0.35433
0.33943
1.47362
1.25235
1.08668
0.958881
0.858041
0.776691
0.710083
0.654671
0.607989
0.56793
0.532956
0.502159
0.47463
0.449879
0.42743
0.406959
0.388129
0.370742
0.354687
0.339768
1.47454
1.25375
1.0883
0.960561
0.859662
0.778289
0.711623
0.65614
0.609314
0.569101
0.534
0.503062
0.475407
0.450565
0.428018
0.407447
0.388541
0.371089
0.354974
0.339993
1.47526
1.2548
1.08944
0.961671
0.860628
0.77915
0.71237
0.656798
0.609812
0.56943
0.534167
0.503063
0.47524
0.450289
0.427613
0.406915
0.387906
0.370364
0.354171
0.339114
1.67794
1.39208
1.44426
1.85636
4.77964
5.89043
1.58209
1.29231
1.09289
0.956136
0.918831
0.941605
1.39737
3.53583
4.33039
3.56277
2.79314
2.29404
2.27112
2.03914
1.45244
1.22177
1.05116
0.920491
0.821235
0.762268
0.888174
1.55847
8.41486
3.32155
2.5439
2.06075
1.42247
1.32842
1.09062
1.4545
1.22428
1.05429
0.924073
0.822744
0.748523
0.756814
0.927612
1.74376
4.98177
5.7645
1.73287
1.40229
1.16948
0.998362
0.879012
0.791155
0.717614
1.45696
1.22763
1.05805
0.928027
0.826254
0.747761
0.709409
0.761107
0.929415
1.16092
1.27159
1.16181
0.843334
0.759746
0.683743
0.620907
0.568315
0.524924
0.488107
0.457219
1.45925
1.23089
1.06177
0.931979
0.830198
0.750314
0.695006
0.684639
0.69429
0.701219
0.672962
0.634295
0.587474
0.54703
0.51032
0.477991
0.449506
0.424332
0.401839
0.381896
1.46133
1.23392
1.06527
0.935751
0.834122
0.753984
0.692029
0.655022
0.633416
0.614677
0.584592
0.552994
0.51944
0.489798
0.462596
0.437696
0.415186
0.394744
0.376111
0.359197
1.46322
1.23671
1.0685
0.939257
0.837817
0.757567
0.693209
0.645536
0.609961
0.58029
0.550008
0.521108
0.492699
0.466866
0.443057
0.42093
0.400678
0.382041
0.36489
0.349151
1.46493
1.23925
1.07146
0.942476
0.841177
0.760829
0.695547
0.643954
0.602692
0.568284
0.536985
0.508363
0.482003
0.456579
0.434099
0.41312
0.393807
0.375929
0.35941
0.344178
1.4665
1.24159
1.07419
0.945423
0.844221
0.763736
0.698057
0.644862
0.601247
0.564626
0.532294
0.503059
0.476914
0.452425
0.430264
0.409616
0.390608
0.373012
0.356746
0.341712
1.46792
1.24373
1.07669
0.948124
0.846984
0.766319
0.700422
0.646389
0.601692
0.563892
0.530767
0.501074
0.47471
0.450298
0.428244
0.407771
0.388921
0.371472
0.355335
0.340392
1.46924
1.24571
1.07899
0.950608
0.849534
0.768748
0.702662
0.648083
0.602741
0.564183
0.530467
0.50065
0.473822
0.449378
0.427287
0.406866
0.388068
0.370679
0.3546
0.339691
1.47045
1.24755
1.08111
0.952891
0.851941
0.77098
0.704734
0.649817
0.603994
0.564887
0.530709
0.500565
0.473514
0.448991
0.42683
0.406415
0.387639
0.370276
0.354228
0.339337
1.47158
1.24926
1.08311
0.95508
0.854316
0.773089
0.706658
0.651497
0.605296
0.565786
0.531232
0.500817
0.473577
0.448972
0.426706
0.406334
0.387557
0.370195
0.354154
0.339263
1.47264
1.25086
1.08496
0.957069
0.856317
0.774964
0.708423
0.65312
0.606644
0.566822
0.532008
0.501403
0.474003
0.449313
0.426939
0.406529
0.387733
0.370368
0.354328
0.339428
1.47362
1.25235
1.08669
0.958881
0.858042
0.776691
0.710081
0.65467
0.607989
0.567931
0.532956
0.502159
0.474629
0.449876
0.42743
0.406961
0.38813
0.370742
0.354686
0.339766
1.47455
1.25376
1.0883
0.96056
0.859662
0.778288
0.711622
0.65614
0.609315
0.569101
0.534
0.503062
0.475406
0.450564
0.428018
0.407449
0.388542
0.371088
0.354973
0.339992
1.47527
1.2548
1.08944
0.961671
0.860626
0.779149
0.71237
0.656798
0.609812
0.56943
0.534167
0.503064
0.47524
0.450288
0.427613
0.406915
0.387905
0.370363
0.35417
0.339114
1.67794
1.39093
1.43314
1.84225
4.82058
5.93805
1.58209
1.29229
1.09273
0.954776
0.91592
0.937743
1.39305
3.54321
4.37858
3.56947
2.78327
2.28251
2.25743
2.02561
1.45243
1.22175
1.05113
0.920443
0.821153
0.761808
0.885958
1.56271
8.37591
3.30957
2.53756
2.07015
1.42704
1.33032
1.08876
1.45451
1.22428
1.05429
0.924068
0.822737
0.748425
0.755763
0.925419
1.75818
5.04445
5.79826
1.7353
1.39966
1.16633
0.997071
0.87908
0.791292
0.71738
1.45696
1.22764
1.05805
0.928029
0.826255
0.747748
0.709087
0.759701
0.927988
1.15974
1.26533
1.15315
0.839665
0.757656
0.68267
0.620584
0.568484
0.525269
0.488378
0.457341
1.45925
1.2309
1.06178
0.93198
0.8302
0.750318
0.69495
0.684179
0.693463
0.700031
0.671948
0.633585
0.58702
0.546787
0.510223
0.477995
0.449574
0.424415
0.401899
0.381914
1.46133
1.23393
1.06527
0.935752
0.834124
0.753994
0.692033
0.65495
0.633254
0.61448
0.584484
0.552934
0.519394
0.489772
0.462615
0.437737
0.415222
0.394766
0.376119
0.35919
1.46322
1.23671
1.0685
0.939259
0.837819
0.757576
0.693216
0.645535
0.60995
0.58028
0.550008
0.521096
0.49267
0.466848
0.443063
0.420944
0.400685
0.382042
0.364888
0.349145
1.46493
1.23925
1.07147
0.942478
0.841179
0.760836
0.695551
0.643954
0.602691
0.568282
0.53698
0.508351
0.481992
0.456569
0.434099
0.413125
0.393808
0.375928
0.359409
0.344175
1.4665
1.24159
1.07419
0.945425
0.844222
0.763741
0.698059
0.644861
0.601243
0.564621
0.532289
0.503044
0.476901
0.452418
0.430269
0.409627
0.390614
0.373014
0.356745
0.34171
1.46793
1.24374
1.07669
0.948126
0.846985
0.766326
0.700426
0.646387
0.601687
0.563887
0.530763
0.501077
0.474711
0.450292
0.42824
0.407771
0.388921
0.371472
0.355334
0.34039
1.46924
1.24572
1.07899
0.95061
0.849535
0.76875
0.702664
0.648083
0.602739
0.564181
0.530465
0.500648
0.473819
0.449374
0.427288
0.406871
0.388072
0.37068
0.354599
0.339689
1.47046
1.24755
1.08112
0.952899
0.851948
0.770982
0.704731
0.649813
0.60399
0.564884
0.530708
0.500565
0.473513
0.448988
0.42683
0.406418
0.387642
0.370278
0.354227
0.339335
1.47159
1.24926
1.08311
0.955082
0.854316
0.773088
0.706657
0.651496
0.605296
0.565786
0.531233
0.500817
0.473576
0.448969
0.426701
0.406334
0.387561
0.370199
0.354156
0.339262
1.47264
1.25086
1.08496
0.957069
0.856318
0.774964
0.708422
0.653119
0.606644
0.566821
0.532008
0.501403
0.474002
0.44931
0.426938
0.406531
0.387736
0.370369
0.354327
0.339426
1.47362
1.25236
1.08669
0.958882
0.858043
0.776691
0.71008
0.654669
0.607988
0.567931
0.532957
0.50216
0.474628
0.449874
0.427429
0.406963
0.388132
0.370742
0.354685
0.339765
1.47455
1.25376
1.0883
0.960561
0.859661
0.778287
0.711622
0.65614
0.609316
0.569101
0.534
0.503062
0.475406
0.450563
0.428018
0.40745
0.388543
0.371088
0.354972
0.339991
1.47527
1.25481
1.08944
0.961671
0.860626
0.779149
0.712369
0.656798
0.609812
0.56943
0.534168
0.503065
0.47524
0.450288
0.427613
0.406915
0.387905
0.370363
0.35417
0.339114
1.67793
1.39053
1.42787
1.83707
4.84363
5.98285
1.58209
1.29228
1.09261
0.953714
0.913469
0.934337
1.39017
3.54005
4.43604
3.59253
2.78037
2.27256
2.24465
2.01177
1.45243
1.22173
1.05111
0.920397
0.821056
0.761371
0.884331
1.56513
8.346
3.30173
2.52573
2.07631
1.43216
1.33296
1.08739
1.45451
1.22428
1.05428
0.924064
0.822727
0.748326
0.754915
0.924487
1.7691
5.08665
5.82614
1.74035
1.39913
1.1639
0.995581
0.878955
0.791451
0.717194
1.45696
1.22764
1.05806
0.92803
0.826256
0.747734
0.708792
0.75874
0.927849
1.16146
1.26388
1.14633
0.836065
0.755479
0.681359
0.619961
0.568404
0.525477
0.488613
0.45747
1.45925
1.2309
1.06178
0.931983
0.830202
0.750321
0.694886
0.683767
0.692777
0.699059
0.670975
0.632808
0.58649
0.546478
0.51007
0.47795
0.449606
0.424484
0.401961
0.38194
1.46133
1.23393
1.06527
0.935754
0.834126
0.754001
0.692032
0.654861
0.633071
0.614248
0.584337
0.55285
0.519335
0.489736
0.462617
0.437763
0.415252
0.39479
0.376132
0.359188
1.46322
1.23671
1.0685
0.939261
0.837822
0.757584
0.693223
0.645529
0.609928
0.580257
0.550002
0.521089
0.492647
0.466829
0.443062
0.420952
0.400691
0.382044
0.364888
0.349141
1.46494
1.23926
1.07147
0.94248
0.841181
0.760841
0.695556
0.643956
0.60269
0.56828
0.536976
0.508342
0.481982
0.456559
0.434096
0.413127
0.39381
0.375929
0.359409
0.344173
1.4665
1.24159
1.07419
0.945427
0.844224
0.763746
0.698063
0.644861
0.601242
0.564618
0.532286
0.503034
0.476888
0.452409
0.430269
0.409634
0.39062
0.373017
0.356746
0.341709
1.46793
1.24374
1.07669
0.948128
0.846987
0.766331
0.700431
0.646387
0.601684
0.563883
0.53076
0.501079
0.474713
0.450288
0.428237
0.407771
0.388921
0.371472
0.355333
0.340389
1.46924
1.24572
1.079
0.950612
0.849537
0.768752
0.702667
0.648083
0.602738
0.564178
0.530463
0.500647
0.473817
0.44937
0.427287
0.406874
0.388075
0.370681
0.354599
0.339688
1.47046
1.24756
1.08113
0.952906
0.851955
0.770985
0.704731
0.64981
0.603987
0.564882
0.530707
0.500564
0.473512
0.448985
0.426828
0.40642
0.387645
0.370279
0.354228
0.339334
1.47159
1.24927
1.08312
0.955083
0.854316
0.773087
0.706655
0.651495
0.605296
0.565786
0.531233
0.500817
0.473576
0.448966
0.426696
0.406332
0.387563
0.370202
0.354158
0.339263
1.47264
1.25086
1.08497
0.957071
0.856319
0.774965
0.708421
0.653118
0.606643
0.566821
0.532008
0.501404
0.474002
0.449309
0.426937
0.406532
0.387738
0.37037
0.354327
0.339425
1.47363
1.25236
1.08669
0.958883
0.858044
0.776691
0.71008
0.654668
0.607988
0.567932
0.532958
0.50216
0.474629
0.449873
0.427428
0.406964
0.388134
0.370743
0.354684
0.339764
1.47455
1.25376
1.0883
0.960562
0.859661
0.778287
0.711622
0.65614
0.609317
0.569102
0.534
0.503062
0.475406
0.450563
0.428018
0.40745
0.388543
0.371088
0.354972
0.33999
1.47527
1.25481
1.08944
0.961672
0.860626
0.779148
0.712369
0.656798
0.609812
0.56943
0.534168
0.503066
0.475241
0.450288
0.427613
0.406914
0.387904
0.370362
0.35417
0.339114
1.67793
1.3904
1.42538
1.83553
4.85188
6.01361
1.58209
1.29227
1.09254
0.952932
0.91156
0.931616
1.38817
3.53498
4.4855
3.62848
2.78796
2.26608
2.23322
1.99862
1.45242
1.22172
1.05109
0.920356
0.820954
0.760963
0.883055
1.56568
8.31012
3.29699
2.51074
2.07726
1.4372
1.33621
1.08669
1.45451
1.22428
1.05428
0.92406
0.822714
0.74823
0.75423
0.924034
1.77588
5.10723
5.83765
1.74667
1.40028
1.16236
0.994121
0.878709
0.791641
0.717071
1.45696
1.22764
1.05806
0.928032
0.826256
0.747717
0.70853
0.758122
0.928323
1.16436
1.26601
1.14252
0.832692
0.753353
0.67996
0.619135