/*--------------------------------*- C++ -*----------------------------------*\
  =========                 |
  \\      /  F ield         | OpenFOAM: The Open Source CFD Toolbox
   \\    /   O peration     | Website:  https://openfoam.org
    \\  /    A nd           | Version:  10
     \\/     M anipulation  |
\*---------------------------------------------------------------------------*/
FoamFile
{
    format      ascii;
    class       volScalarField;
    location    "2000";
    object      p;
}
// * * * * * * * * * * * * * * * * * * * * * * * * * * * * * * * * * * * * * //

dimensions      [0 2 -2 0 0 0 0];

internalField   nonuniform List<scalar> 
52338
(
9.41448
8.16096
9.85107
9.08926
9.8673
12.4064
8.34467
7.74241
8.42803
8.76684
9.52172
11.2841
12.9898
14.6044
-5.91853
-3.04861
-1.26341
0.504911
0.726088
0.252968
7.84664
7.66501
7.99427
8.36456
8.96058
9.98831
10.5695
9.05006
-8.98357
-5.96642
-2.97431
-1.12407
-0.0567927
0.120882
0.172615
7.50273
7.38071
7.57756
7.79192
8.06094
8.2887
7.51718
4.23394
-14.8853
-23.2019
-13.404
-8.54507
-5.50286
-3.01683
-1.36628
-0.512901
-0.467612
-0.0340179
7.14477
7.05599
7.12659
7.17896
7.13835
6.78498
5.13537
-0.402305
-12.9021
-21.4645
-26.9858
-21.2711
-13.9174
-8.18475
-5.56185
-3.34976
-1.78193
-0.831261
-0.6274
-0.171099
6.78953
6.71106
6.67676
6.57392
6.2782
5.49865
3.47647
-1.84145
-12.4527
-18.4811
-20.9475
-17.4121
-11.6093
-8.15582
-5.67173
-3.62198
-2.12576
-1.1481
-0.749692
-0.263842
6.43944
6.36101
6.23748
5.99628
5.49259
4.45142
2.20951
-2.27185
-10.4581
-15.5086
-17.7298
-15.1466
-11.0462
-8.10292
-5.79699
-3.86853
-2.41805
-1.39448
-0.850773
-0.347313
6.10135
6.01687
5.81777
5.45922
4.79854
3.59077
1.31295
-2.59631
-9.05082
-13.3315
-15.2027
-13.7038
-10.5036
-7.89661
-5.79553
-3.9981
-2.6116
-1.59361
-0.932578
-0.410064
5.77917
5.68627
5.42436
4.97011
4.19382
2.88785
0.651442
-2.79584
-7.93871
-11.5579
-13.2343
-12.2816
-9.82193
-7.62489
-5.74484
-4.10954
-2.77677
-1.7638
-1.00374
-0.462679
5.47789
5.37549
5.06245
4.53237
3.67413
2.31687
0.165544
-2.89321
-7.07175
-10.1705
-11.6427
-11.1546
-9.27016
-7.392
-5.68564
-4.17807
-2.88802
-1.88935
-1.05543
-0.501723
5.20202
5.08887
4.7352
4.14669
3.2328
1.85529
-0.191501
-2.93294
-6.40269
-9.06433
-10.3939
-10.1693
-8.72019
-7.12434
-5.58568
-4.20648
-2.96555
-1.98998
-1.09953
-0.534712
4.95447
4.83044
4.44511
3.81231
2.86296
1.48794
-0.456121
-2.93335
-5.87208
-8.1914
-9.39813
-9.348
-8.23821
-6.90008
-5.50357
-4.22833
-3.02493
-2.06805
-1.13382
-0.5598
4.73768
4.60369
4.19322
3.52714
2.55682
1.19603
-0.643422
-2.91406
-5.45512
-7.5043
-8.60722
-8.68357
-7.84051
-6.68506
-5.40792
-4.22338
-3.057
-2.12238
-1.15808
-0.578836
4.55346
4.41116
3.98285
3.29349
2.31392
0.971312
-0.779928
-2.88442
-5.12896
-6.98413
-7.99487
-8.14929
-7.51255
-6.50033
-5.33235
-4.21711
-3.08401
-2.1668
-1.17936
-0.594881
4.40358
4.25469
3.81395
3.1108
2.12647
0.804271
-0.876954
-2.85991
-4.87999
-6.58374
-7.52439
-7.73382
-7.25993
-6.35099
-5.26274
-4.20451
-3.09584
-2.19431
-1.1916
-0.604928
4.28954
4.13559
3.6868
2.97496
1.98874
0.681971
-0.946258
-2.83177
-4.71809
-6.2769
-7.17753
-7.45291
-7.0734
-6.23844
-5.20957
-4.1905
-3.10485
-2.21608
-1.20279
-0.614051
4.21245
4.05472
3.60117
2.88457
1.89775
0.602063
-0.988967
-2.81375
-4.60633
-6.09688
-6.98694
-7.23191
-6.94038
-6.15971
-5.16973
-4.17847
-3.10786
-2.22751
-1.20781
-0.618444
4.17386
4.01369
3.55777
2.83903
1.85139
0.560513
-1.01277
-2.8104
-4.55067
-6.01116
-6.88328
-7.12142
-6.88413
-6.12216
-5.14937
-4.17292
-3.1103
-2.23443
-1.2115
-0.62179
9.53951
7.81058
8.67329
8.7935
9.58069
11.6212
8.3678
7.71949
8.22863
8.53113
9.35143
10.8914
12.7835
15.2861
-5.75381
-3.07055
-1.31988
0.480706
0.739137
0.272823
7.76714
7.52018
7.79589
8.16444
8.71693
9.5771
9.72717
8.03276
-8.13963
-5.78025
-2.98599
-1.17703
-0.066368
0.129177
0.176976
7.43584
7.24569
7.41148
7.62346
7.86103
7.99102
7.09926
3.87073
-14.5551
-24.3173
-12.2819
-7.86002
-5.24609
-2.98281
-1.39867
-0.520013
-0.468176
-0.0284564
7.094
6.94642
6.99653
7.04672
6.98427
6.58181
4.85119
-0.907872
-12.8903
-21.4407
-27.1098
-20.5334
-12.0751
-8.20282
-5.51601
-3.32077
-1.79112
-0.835954
-0.629443
-0.164451
6.75139
6.62387
6.57505
6.47126
6.16124
5.35905
3.29943
-2.10382
-12.6264
-18.5776
-20.8192
-16.9616
-11.2598
-8.07474
-5.65976
-3.60976
-2.13228
-1.15336
-0.750969
-0.258765
6.41054
6.29135
6.15693
5.91608
5.40354
4.3542
2.10161
-2.40491
-10.5831
-15.5758
-17.6323
-14.8511
-10.7906
-7.94855
-5.74542
-3.85092
-2.41831
-1.39953
-0.853112
-0.343042
6.07922
5.96075
5.75351
5.39626
4.73129
3.52469
1.24851
-2.67095
-9.12602
-13.3667
-15.1347
-13.518
-10.2924
-7.73584
-5.72364
-3.98734
-2.61086
-1.59664
-0.93506
-0.406617
5.76228
5.64079
5.37293
4.9206
4.14274
2.84121
0.614421
-2.83762
-7.98197
-11.5776
-13.1901
-12.1418
-9.6785
-7.49983
-5.67681
-4.10127
-2.77548
-1.76565
-1.00641
-0.460289
5.46494
5.33891
5.02157
4.49374
3.63565
2.28419
0.143433
-2.91761
-7.09841
-10.1842
-11.6118
-11.0425
-9.16472
-7.30867
-5.62646
-4.17102
-2.88676
-1.89054
-1.05801
-0.500128
5.19204
5.06009
4.70344
4.11755
3.20499
1.83496
-0.20402
-2.94676
-6.42093
-9.07481
-10.3738
-10.0933
-8.64153
-7.06428
-5.53789
-4.20039
-2.96449
-1.99073
-1.10175
-0.533735
4.94704
4.80853
4.4217
3.79242
2.84547
1.4753
-0.45847
-2.9413
-5.88482
-8.19958
-9.38812
-9.30961
-8.19117
-6.8555
-5.46474
-4.22251
-3.02424
-2.06859
-1.13565
-0.559209
4.73245
4.58783
4.1782
3.51736
2.55067
1.19174
-0.643808
-2.91662
-5.46303
-7.5102
-8.60237
-8.66225
-7.81293
-6.65265
-5.37733
-4.21769
-3.05666
-2.12267
-1.15951
-0.578504
4.55043
4.40064
3.97381
3.291
2.31413
0.974465
-0.777973
-2.88443
-5.13248
-6.98786
-7.99193
-8.1373
-7.49487
-6.47612
-5.30425
-4.21035
-3.08374
-2.167
-1.18047
-0.594696
4.40264
4.24884
3.80947
3.11135
2.12957
0.808766
-0.873374
-2.85771
-4.88002
-6.58443
-7.52153
-7.72578
-7.24752
-6.3328
-5.23985
-4.19465
-3.095
-2.19442
-1.19247
-0.60482
4.29055
4.13382
3.68591
2.97731
1.99273
0.686864
-0.941522
-2.82737
-4.71492
-6.27411
-7.17399
-7.44642
-7.06391
-6.22486
-5.19141
-4.18122
-3.10374
-2.21622
-1.20349
-0.61398
4.21518
4.05641
3.60317
2.88835
1.90247
0.607356
-0.983246
-2.80744
-4.60014
-6.09189
-6.98202
-7.22568
-6.93249
-6.14987
-5.15672
-4.17112
-3.10676
-2.22769
-1.20842
-0.618376
4.1774
4.01725
3.5615
2.84374
1.85681
0.566311
-1.00648
-2.80288
-4.54327
-6.00435
-6.87726
-7.11567
-6.8773
-6.11453
-5.1401
-4.16731
-3.10912
-2.23454
-1.21205
-0.621751
9.49208
7.65344
8.49727
8.67679
9.59422
11.4482
8.33111
7.63561
8.14704
8.46214
9.24724
10.7461
12.6371
14.9516
-5.75119
-3.13351
-1.39027
0.447151
0.744078
0.288966
7.72976
7.45927
7.72755
8.09315
8.61791
9.42289
9.49071
8.22796
-8.77408
-5.77673
-3.05319
-1.25123
-0.0895726
0.128213
0.178871
7.39948
7.18934
7.34609
7.55128
7.76197
7.83254
6.78816
3.56823
-14.6563
-24.3636
-12.8133
-8.04906
-5.21769
-3.04676
-1.44102
-0.537106
-0.47608
-0.0256905
7.05824
6.89429
6.93656
6.97849
6.8914
6.43589
4.58794
-1.11461
-13.0886
-21.3045
-27.134
-20.7836
-12.261
-8.39987
-5.52448
-3.3726
-1.82496
-0.847039
-0.635169
-0.161039
6.71839
6.57665
6.52138
6.40986
6.07931
5.23584
3.10757
-2.27547
-12.7445
-18.6144
-20.9179
-17.2105
-11.4363
-8.20921
-5.6425
-3.63141
-2.16071
-1.16475
-0.754317
-0.255625
6.38153
6.25027
6.11083
5.86348
5.33527
4.2597
1.97148
-2.54214
-10.6814
-15.6225
-17.7058
-15.0355
-10.9177
-8.04987
-5.74929
-3.8539
-2.43289
-1.40935
-0.855914
-0.339983
6.05454
5.92601
5.71503
5.35269
4.6761
3.45293
1.15783
-2.77457
-9.21145
-13.4181
-15.1972
-13.6316
-10.3795
-7.83174
-5.75207
-3.9914
-2.62062
-1.60465
-0.937805
-0.403929
5.74181
5.612
5.34141
4.88528
4.09894
2.78733
0.548421
-2.91533
-8.0519
-11.6275
-13.241
-12.2132
-9.74656
-7.57781
-5.7158
-4.10305
-2.78018
-1.77182
-1.00937
-0.458197
5.44824
5.31541
4.99614
4.46564
3.6016
2.24407
0.0962595
-2.97429
-7.15327
-10.2258
-11.6535
-11.089
-9.21278
-7.36779
-5.66232
-4.17234
-2.88936
-1.89527
-1.06084
-0.498535
5.17857
5.04119
4.68317
4.09554
3.1789
1.80498
-0.237987
-2.98844
-6.46318
-9.10789
-10.4085
-10.1292
-8.67094
-7.10379
-5.56723
-4.20196
-2.96615
-1.99421
-1.10421
-0.532643
4.93634
4.79357
4.40568
3.7753
2.82532
1.45291
-0.483472
-2.97196
-5.91694
-8.22522
-9.41426
-9.32879
-8.2151
-6.88394
-5.48788
-4.22334
-3.02524
-2.07119
-1.13776
-0.558521
4.72412
4.57615
4.16571
3.50427
2.53521
1.17589
-0.661768
-2.93839
-5.4867
-7.52961
-8.62156
-8.67424
-7.82785
-6.67374
-5.3956
-4.21739
-3.05722
-2.12459
-1.16124
-0.578091
4.54412
4.39168
3.96437
3.2813
2.30297
0.96308
-0.790298
-2.89955
-5.14945
-7.00243
-8.00616
-8.1464
-7.50571
-6.49235
-5.31841
-4.21191
-3.08398
-2.16849
-1.18192
-0.594474
4.39795
4.24202
3.80251
3.10446
2.12216
0.800713
-0.881913
-2.86832
-4.89236
-6.59554
-7.53233
-7.73312
-7.25581
-6.34555
-5.25429
-4.19875
-3.09577
-2.19559
-1.1937
-0.604719
4.28708
4.12866
3.68074
2.97251
1.98782
0.681543
-0.947443
-2.83495
-4.72391
-6.2827
-7.18213
-7.45269
-7.07067
-6.23485
-5.20376
-4.18744
-3.105
-2.21722
-1.20456
-0.613973
4.21256
4.05255
3.59932
2.88494
1.8991
0.60388
-0.987428
-2.81299
-4.6069
-6.09849
-6.98845
-7.23084
-6.93777
-6.15738
-5.16673
-4.17742
-3.10827
-2.22868
-1.2094
-0.618429
4.17533
4.0143
3.55846
2.84111
1.85432
0.563654
-1.00978
-2.80736
-4.54874
-6.00976
-6.88239
-7.12013
-6.88182
-6.12101
-5.14922
-4.17368
-3.11076
-2.23546
-1.21293
-0.62182
9.4626
7.6114
8.47791
8.6565
9.59193
11.4262
8.3064
7.60551
8.12692
8.44436
9.23188
10.7151
12.6083
15.0638
-5.61428
-3.15431
-1.45702
0.400811
0.730832
0.302199
7.72355
7.4576
7.72957
8.09711
8.62098
9.43711
9.48529
8.256
-9.14716
-5.58579
-3.06691
-1.31597
-0.129283
0.111733
0.176048
7.39774
7.19261
7.35344
7.55979
7.76954
7.85248
6.77484
3.55645
-14.8452
-24.502
-12.6035
-8.16332
-5.14877
-3.07662
-1.47417
-0.5665
-0.492024
-0.0284305
7.05726
6.89834
6.94421
6.9864
6.89764
6.44859
4.58545
-1.09771
-13.2165
-21.3676
-27.1356
-20.7079
-12.1228
-8.45144
-5.50473
-3.40446
-1.85496
-0.869409
-0.646681
-0.162196
6.71741
6.58016
6.52773
6.41589
6.08332
5.24151
3.10344
-2.27009
-12.7956
-18.6395
-20.8928
-17.212
-11.3716
-8.22977
-5.62363
-3.64693
-2.18689
-1.18447
-0.76202
-0.255691
6.38039
6.25302
6.11586
5.86782
5.33732
4.26
1.96278
-2.54935
-10.708
-15.6371
-17.7061
-15.0603
-10.88
-8.07449
-5.75166
-3.86739
-2.45295
-1.42453
-0.861217
-0.339165
6.0532
5.928
5.71886
5.3556
4.67646
3.44983
1.14653
-2.78596
-9.23084
-13.4296
-15.203
-13.6644
-10.3668
-7.84859
-5.76
-4.00315
-2.63894
-1.61788
-0.942311
-0.402725
5.74033
5.61339
5.34423
4.88709
4.09809
2.78273
0.537094
-2.92799
-8.06708
-11.638
-13.2493
-12.2405
-9.74758
-7.5885
-5.72409
-4.11042
-2.79346
-1.78218
-1.01322
-0.457029
5.44672
5.3163
4.99813
4.46661
3.60005
2.23892
0.0862054
-2.98622
-7.1659
-10.2346
-11.6626
-11.1095
-9.22276
-7.37498
-5.67076
-4.17859
-2.9
-1.9037
-1.06423
-0.497538
5.17716
5.04166
4.68445
4.09581
3.17689
1.79933
-0.247063
-2.99944
-6.47422
-9.11561
-10.4177
-10.1409
-8.68447
-7.10957
-5.57611
-4.20779
-2.97439
-2.00081
-1.10712
-0.531909
4.93505
4.79364
4.40622
3.77489
2.82272
1.44734
-0.492166
-2.98225
-5.92664
-8.232
-9.42184
-9.33751
-8.22824
-6.88875
-5.49668
-4.22883
-3.03168
-2.0764
-1.14029
-0.55804
4.72292
4.57581
4.16549
3.50312
2.53196
1.17054
-0.669545
-2.94731
-5.49502
-7.53563
-8.628
-8.68214
-7.83799
-6.67738
-5.40373
-4.22219
-3.06228
-2.12871
-1.1634
-0.577803
4.54281
4.39093
3.96351
3.27946
2.29939
0.957699
-0.797171
-2.90719
-5.15672
-7.00797
-8.01192
-8.15234
-7.51358
-6.4955
-5.3256
-4.21581
-3.08748
-2.17176
-1.18381
-0.59435
4.39653
4.24086
3.80113
3.10214
2.11835
0.79553
-0.88823
-2.87526
-4.89916
-6.601
-7.53762
-7.73787
-7.26207
-6.34876
-5.25949
-4.20245
-3.09874
-2.19837
-1.19536
-0.604705
4.28557
4.12709
3.67885
2.96983
1.98374
0.676483
-0.953397
-2.84155
-4.73054
-6.28837
-7.18707
-7.4571
-7.0761
-6.23824
-5.20779
-4.19087
-3.10744
-2.21956
-1.20601
-0.614051
4.2108
4.05051
3.597
2.88195
1.89497
0.598847
-0.993245
-2.81952
-4.61369
-6.10439
-6.99364
-7.23516
-6.9427
-6.16094
-5.17059
-4.18066
-3.11039
-2.23072
-1.21074
-0.618563
4.1734
4.01201
3.55589
2.83795
1.85022
0.558687
-1.01553
-2.81388
-4.5557
-6.01587
-6.88761
-7.1244
-6.88656
-6.12507
-5.15343
-4.17703
-3.11288
-2.23732
-1.21415
-0.621967
9.45439
7.60747
8.50176
8.6618
9.58637
11.4455
8.2993
7.60335
8.13697
8.44648
9.23432
10.7259
12.6525
15.2449
-5.5075
-3.11623
-1.50134
0.350766
0.706956
0.309552
7.71998
7.45873
7.734
8.09977
8.62503
9.45579
9.54663
8.35944
-9.22307
-5.41393
-3.02817
-1.35728
-0.168292
0.089072
0.170779
7.39589
7.1942
7.35802
7.56411
7.77426
7.8736
6.82027
3.6393
-14.7867
-24.4536
-12.625
-8.21665
-5.07707
-3.06879
-1.49518
-0.594228
-0.506269
-0.033306
7.05643
6.90069
6.94856
6.99124
6.9031
6.46621
4.61691
-1.03925
-13.1792
-21.4311
-27.134
-20.6332
-12.0844
-8.47683
-5.46378
-3.40654
-1.87181
-0.89232
-0.65536
-0.164871
6.7176
6.5829
6.53188
6.42068
6.08891
5.25539
3.12183
-2.23787
-12.7882
-18.6625
-20.8678
-17.171
-11.329
-8.23459
-5.59572
-3.6435
-2.19858
-1.20362
-0.768433
-0.257194
6.38092
6.25569
6.11974
5.87213
5.34218
4.26946
1.97292
-2.53221
-10.7049
-15.6516
-17.6956
-15.0329
-10.8255
-8.06823
-5.74155
-3.86992
-2.46381
-1.43853
-0.865235
-0.339545
6.05364
5.93027
5.72214
5.35904
4.67995
3.45552
1.1515
-2.77598
-9.23136
-13.4378
-15.1884
-13.6502
-10.3258
-7.83591
-5.75164
-4.00534
-2.64967
-1.62972
-0.945941
-0.402545
5.74049
5.61518
5.34683
4.88961
4.10028
2.78571
0.539121
-2.92314
-8.06754
-11.642
-13.2388
-12.2328
-9.71754
-7.57489
-5.71817
-4.11246
-2.80185
-1.79079
-1.01604
-0.456599
5.44664
5.3176
5.00005
4.46826
3.60116
2.23999
0.0864589
-2.98427
-7.1664
-10.2361
-11.656
-11.1064
-9.20397
-7.36432
-5.66681
-4.18098
-2.90758
-1.91081
-1.06679
-0.497091
5.17685
5.04247
4.6857
4.09669
3.17714
1.79896
-0.248057
-2.99934
-6.47522
-9.11641
-10.4152
-10.1375
-8.67395
-7.10128
-5.57371
-4.21019
-2.9806
-2.00638
-1.10935
-0.531548
4.93462
4.79401
4.40686
3.77514
2.82229
1.44629
-0.493814
-2.98342
-5.92815
-8.23286
-9.42107
-9.3358
-8.2237
-6.88254
-5.49551
-4.2312
-3.03679
-2.08088
-1.14228
-0.557794
4.72236
4.57581
4.16564
3.5029
2.53103
1.16907
-0.671464
-2.94897
-5.49679
-7.53669
-8.6284
-8.68203
-7.83619
-6.67282
-5.40343
-4.22454
-3.06653
-2.13239
-1.16514
-0.577656
4.54215
4.39063
3.96331
3.27888
2.29821
0.955867
-0.799359
-2.90919
-5.15868
-7.00928
-8.01311
-8.15252
-7.51369
-6.49272
-5.32583
-4.21788
-3.09074
-2.17472
-1.18535
-0.594316
4.39577
4.24033
3.80065
3.10131
2.11696
0.793586
-0.890509
-2.87749
-4.90138
-6.60253
-7.53918
-7.73844
-7.26294
-6.34728
-5.25946
-4.20415
-3.10159
-2.20097
-1.19673
-0.604751
4.28462
4.1264
3.67817
2.96881
1.98212
0.674413
-0.955724
-2.84387
-4.73276
-6.29015
-7.18864
-7.458
-7.07746
-6.23775
-5.20789
-4.19235
-3.10982
-2.22174
-1.2072
-0.614154
4.20982
4.04969
3.59614
2.88077
1.89321
0.596624
-0.995699
-2.82192
-4.61607
-6.10637
-6.99541
-7.23631
-6.94425
-6.16108
-5.17093
-4.18196
-3.11243
-2.23267
-1.21187
-0.61871
4.17238
4.01108
3.5549
2.83662
1.84829
0.556277
-1.01818
-2.81644
-4.55839
-6.01819
-6.88946
-7.12566
-6.88827
-6.12576
-5.1541
-4.17837
-3.11482
-2.23915
-1.21523
-0.622128
9.45259
7.60829
8.51251
8.66181
9.58662
11.4667
8.29711
7.6035
8.14058
8.4464
9.23405
10.7335
12.6867
15.324
-5.48579
-3.04234
-1.52427
0.305902
0.676828
0.312202
7.71846
7.45591
7.73336
8.09817
8.62368
9.46122
9.57689
8.4014
-9.1793
-5.33922
-2.95766
-1.3752
-0.202697
0.0628901
0.16478
7.39343
7.19101
7.35594
7.56168
7.77168
7.87861
6.83982
3.68279
-14.7026
-24.3742
-12.6973
-8.25618
-5.05655
-3.04085
-1.50823
-0.617035
-0.517329
-0.0389436
7.0533
6.89737
6.94559
6.98834
6.90037
6.46968
4.62954
-1.00906
-13.1165
-21.3897
-27.1481
-20.6201
-12.1122
-8.50946
-5.44835
-3.39563
-1.88151
-0.912104
-0.661104
-0.168919
6.7146
6.57975
6.52877
6.41779
6.08624
5.25773
3.13017
-2.21869
-12.7478
-18.6548
-20.8796
-17.1676
-11.3423
-8.25244
-5.5839
-3.63609
-2.20355
-1.21904
-0.772008
-0.259757
6.37815
6.25287
6.11682
5.86942
5.33972
4.27089
1.9781
-2.51812
-10.6832
-15.6437
-17.7025
-15.0384
-10.824
-8.07755
-5.7379
-3.87005
-2.46976
-1.44978
-0.866537
-0.340653
6.0512
5.92781
5.71942
5.35647
4.6777
3.45625
1.15474
-2.76615
-9.2182
-13.436
-15.1844
-13.6548
-10.3235
-7.84195
-5.7493
-4.00385
-2.65437
-1.63876
-0.947296
-0.402975
5.73837
5.61311
5.34435
4.8872
4.09826
2.78589
0.541125
-2.91707
-8.05939
-11.6416
-13.2351
-12.2366
-9.71131
-7.57709
-5.71742
-4.11212
-2.80583
-1.7969
-1.01664
-0.456517
5.44473
5.31574
4.99777
4.46604
3.59936
2.2398
0.0875583
-2.98052
-7.16162
-10.2359
-11.6518
-11.1103
-9.19871
-7.36479
-5.66641
-4.1814
-2.91154
-1.91576
-1.06758
-0.496905
5.17518
5.04071
4.68365
4.09471
3.17554
1.79841
-0.247663
-2.9972
-6.47261
-9.11616
-10.4131
-10.139
-8.67008
-7.09995
-5.5733
-4.21092
-2.98392
-2.01
-1.1101
-0.531335
4.93309
4.79237
4.40507
3.77341
2.82082
1.4456
-0.493855
-2.98247
-5.92686
-8.2327
-9.41978
-9.33669
-8.22153
-6.88083
-5.49533
-4.23224
-3.03968
-2.08374
-1.1431
-0.557644
4.72096
4.57431
4.16407
3.5014
2.52969
1.16828
-0.671779
-2.94864
-5.4963
-7.53661
-8.62809
-8.68284
-7.83461
-6.67104
-5.40335
-4.2258
-3.06914
-2.13476
-1.16598
-0.577568
4.54086
4.38926
3.96195
3.27758
2.29702
0.954976
-0.799964
-2.90938
-5.15869
-7.00938
-8.01355
-8.1527
-7.51316
-6.49172
-5.32617
-4.21922
-3.09295
-2.1766
-1.18613
-0.594303
4.3946
4.23909
3.79945
3.10016
2.11584
0.79267
-0.891256
-2.87797
-4.90183
-6.60288
-7.53999
-7.73872
-7.26296
-6.34679
-5.25989
-4.20552
-3.1037
-2.20263
-1.19749
-0.604808
4.28351
4.12528
3.6771
2.96778
1.98107
0.673454
-0.956562
-2.8445
-4.73331
-6.2907
-7.18947
-7.45831
-7.07794
-6.23776
-5.20854
-4.1937
-3.11169
-2.22316
-1.2079
-0.614254
4.20879
4.04866
3.59517
2.87983
1.89224
0.595695
-0.996553
-2.82256
-4.61664
-6.10691
-6.99627
-7.23667
-6.94492
-6.16126
-5.17157
-4.1832
-3.1141
-2.234
-1.21257
-0.618848
4.1714
4.01012
3.55401
2.83574
1.84735
0.555348
-1.01905
-2.81703
-4.559
-6.01888
-6.89018
-7.12598
-6.88906
-6.12605
-5.15472
-4.17962
-3.11649
-2.24048
-1.21592
-0.622273
9.45164
7.60864
8.51624
8.66606
9.59173
11.4729
8.29628
7.60355
8.14132
8.44825
9.23669
10.7405
12.712
15.3472
-5.53723
-2.94813
-1.52504
0.265006
0.641231
0.309729
7.71803
7.45387
7.73403
8.09921
8.62597
9.46817
9.59524
8.41269
-9.16581
-5.39356
-2.86404
-1.36855
-0.23137
0.032908
0.159411
7.39232
7.18929
7.35593
7.56232
7.77335
7.88495
6.85264
3.70045
-14.6594
-24.3022
-12.7157
-8.28419
-5.08427
-2.99821
-1.50904
-0.635653
-0.527261
-0.0454052
7.0518
6.89545
6.94475
6.98832
6.90143
6.47478
4.64139
-0.989477
-13.0721
-21.3238
-27.1236
-20.6346
-12.1343
-8.53796
-5.46003
-3.37735
-1.8842
-0.928405
-0.664289
-0.175618
6.71296
6.57778
6.52746
6.41732
6.08671
5.26177
3.13967
-2.20465
-12.7137
-18.6244
-20.888
-17.1792
-11.3559
-8.26866
-5.58964
-3.62808
-2.20465
-1.23091
-0.773216
-0.264005
6.37629
6.25085
6.11525
5.8686
5.33973
4.27395
1.98506
-2.50653
-10.6618
-15.6245
-17.7036
-15.0539
-10.8349
-8.0919
-5.74373
-3.86956
-2.4736
-1.45906
-0.866189
-0.343099
6.0493
5.92581
5.7177
5.35539
4.67736
3.45846
1.1598
-2.75745
-9.20301
-13.4248
-15.1828
-13.6671
-10.3331
-7.85382
-5.75358
-4.0031
-2.65723
-1.64591
-0.947053
-0.404473
5.73643
5.61122
5.34261
4.88601
4.09775
2.78738
0.544731
-2.91084
-8.04868
-11.6336
-13.2349
-12.2481
-9.71758
-7.58551
-5.72103
-4.11321
-2.80917
-1.80186
-1.01577
-0.457111
5.44287
5.31397
4.99608
4.46482
3.59871
2.24072
0.0900926
-2.97606
-7.15414
-10.2313
-11.6501
-11.12
-9.20468
-7.37166
-5.66967
-4.18292
-2.91468
-1.91974
-1.06728
-0.497212
5.17355
5.03904
4.68204
4.09351
3.17484
1.79886
-0.245966
-2.99409
-6.46761
-9.11312
-10.4122
-10.1454
-8.67423
-7.10433
-5.57598
-4.21263
-2.98654
-2.01276
-1.10986
-0.531382
4.93164
4.7908
4.40358
3.77227
2.82008
1.44574
-0.492765
-2.98038
-5.92354
-8.23076
-9.41889
-9.34137
-8.22514
-6.88403
-5.49779
-4.23401
-3.04198
-2.08587
-1.14312
-0.557642
4.71958
4.57287
4.1627
3.50033
2.52893
1.1682
-0.671133
-2.94722
-5.49413
-7.5353
-8.62765
-8.68626
-7.83737
-6.67323
-5.40541
-4.22745
-3.07119
-2.13651
-1.16617
-0.577553
4.53958
4.38794
3.9607
3.27656
2.29628
0.954734
-0.799658
-2.90853
-5.15731
-7.00849
-8.01364
-8.1547
-7.5153
-6.49355
-5.32818
-4.22085
-3.09468
-2.17797
-1.18637
-0.594317
4.39339
4.2379
3.7983
3.0992
2.11511
0.792337
-0.891164
-2.87746
-4.90103
-6.60237
-7.54028
-7.74015
-7.26468
-6.34821
-5.26151
-4.20696
-3.10527
-2.20385
-1.19784
-0.604876
4.28237
4.12414
3.67602
2.96687
1.98036
0.67305
-0.956643
-2.84426
-4.73282
-6.29046
-7.18987
-7.45925
-7.07941
-6.23906
-5.21006
-4.19515
-3.11312
-2.22419
-1.20824
-0.614337
4.20772
4.04756
3.59413
2.87896
1.89157
0.595285
-0.996713
-2.82247
-4.61642
-6.1068
-6.99679
-7.23741
-6.94627
-6.1624
-5.17289
-4.18457
-3.11544
-2.23494
-1.21295
-0.618962
4.17038
4.00904
3.55301
2.83491
1.84669
0.554927
-1.01926
-2.81701
-4.55891
-6.01902
-6.89061
-7.12658
-6.89033
-6.12709
-5.15596
-4.18098
-3.1178
-2.24143
-1.21633
-0.622391
9.45122
7.60922
8.51706
8.66936
9.59999
11.4728
8.29615
7.60379
8.14177
8.45031
9.24092
10.7458
12.7285
15.3577
-5.62382
-2.84282
-1.50119
0.233716
0.606222
0.300816
7.71817
7.45326
7.73523
8.10114
8.63013
9.47472
9.60887
8.42304
-9.16894
-5.51349
-2.75388
-1.34846
-0.250991
0.000263548
0.154257
7.39213
7.18922
7.35714
7.56444
7.7772
7.89172
6.86448
3.70988
-14.6452
-24.2598
-12.742
-8.30267
-5.13263
-2.95014
-1.49623
-0.649899
-0.537999
-0.0523848
7.0516
6.89527
6.94559
6.99026
6.90491
6.48103
4.65269
-0.980255
-13.0516
-21.2807
-27.1091
-20.6281
-12.1516
-8.56283
-5.4834
-3.3537
-1.87902
-0.939706
-0.666202
-0.184048
6.71265
6.57758
6.52813
6.4191
6.08973
5.26733
3.14937
-2.19521
-12.6989
-18.5938
-20.8836
-17.1808
-11.3704
-8.28098
-5.60164
-3.6169
-2.20128
-1.23871
-0.773038
-0.26963
6.3757
6.25055
6.11568
5.87009
5.34223
4.27871
1.99285
-2.49722
-10.6499
-15.6052
-17.6956
-15.0612
-10.8445
-8.1026
-5.75215
-3.86623
-2.47426
-1.46567
-0.864855
-0.346869
6.04863
5.92544
5.71791
5.35654
4.67936
3.46237
1.16611
-2.7498
-9.19208
-13.4121
-15.1763
-13.6725
-10.3405
-7.86148
-5.75895
-4.00144
-2.65777
-1.65056
-0.945681
-0.407117
5.73559
5.61077
5.3427
4.88687
4.0993
2.7905
0.549684
-2.9047
-8.04012
-11.6244
-13.2296
-12.2547
-9.72337
-7.59095
-5.72491
-4.11379
-2.81117
-1.80552
-1.01426
-0.458591
5.44205
5.31346
4.99604
4.46539
3.59985
2.24312
0.0939156
-2.97124
-7.1473
-10.2252
-11.6451
-11.1261
-9.20966
-7.37643
-5.67311
-4.18406
-2.91665
-1.92263
-1.06639
-0.498206
5.17271
5.03845
4.68188
4.09383
3.17563
1.80062
-0.243109
-2.99039
-6.46244
-9.10849
-10.4089
-10.15
-8.67814
-7.10776
-5.57868
-4.21403
-2.98835
-2.01482
-1.10912
-0.53186
4.93085
4.79017
4.4033
3.77238
2.82058
1.44699
-0.490668
-2.97764
-5.91959
-8.22754
-9.41637
-9.34511
-8.22867
-6.88695
-5.50031
-4.23556
-3.04367
-2.08751
-1.14275
-0.55794
4.71884
4.57221
4.16231
3.50026
2.52919
1.16904
-0.669619
-2.94516
-5.49119
-7.53293
-8.62604
-8.68929
-7.84017
-6.67551
-5.4075
-4.22887
-3.07265
-2.13784
-1.16604
-0.577729
4.53879
4.38724
3.96022
3.27635
2.29635
0.955261
-0.798581
-2.90703
-5.15515
-7.0067
-8.01272
-8.15668
-7.51762
-6.49561
-5.33015
-4.22226
-3.09595
-2.17901
-1.18635
-0.594438
4.39258
4.23719
3.79777
3.09888
2.11503
0.792643
-0.890397
-2.87631
-4.89944
-6.60107
-7.53977
-7.74173
-7.26666
-6.34993
-5.26309
-4.20818
-3.10639
-2.20481
-1.19798
-0.605006
4.28157
4.12343
3.67544
2.96648
1.98018
0.673196
-0.956109
-2.84342
-4.73161
-6.28953
-7.18968
-7.46032
-7.08109
-6.24062
-5.21156
-4.19639
-3.11416
-2.22503
-1.20844
-0.614448
4.20691
4.04684
3.59352
2.87851
1.89133
0.595353
-0.99631
-2.82182
-4.6155
-6.10611
-6.99672
-7.23816
-6.94786
-6.16381
-5.17425
-4.18571
-3.11639
-2.23573
-1.21319
-0.619088
4.16958
4.00829
3.55236
2.83444
1.84642
0.554952
-1.01894
-2.81644
-4.55812
-6.01858
-6.89052
-7.12728
-6.89184
-6.12839
-5.15728
-4.1821
-3.11873
-2.24217
-1.21657
-0.622513
9.45117
7.60986
8.51718
8.6696
9.60634
11.4752
8.29619
7.60398
8.14242
8.4519
9.24391
10.7489
12.7379
15.3575
-5.73665
-2.75587
-1.45206
0.214082
0.569136
0.285799
7.7181
7.45322
7.73588
8.10258
8.63311
9.47709
9.6166
8.4318
-9.15517
-5.66544
-2.67126
-1.3053
-0.2613
-0.0300068
0.15033
7.39191
7.18942
7.35798
7.56596
7.77979
7.89486
6.87115
3.71662
-14.6423
-24.2469
-12.7798
-8.32664
-5.19289
-2.90911
-1.46938
-0.659537
-0.549257
-0.0583268
7.05149
6.89533
6.94627
6.9917
6.90735
6.48428
4.65906
-0.976024
-13.0469
-21.2672
-27.1142
-20.6132
-12.1625
-8.5831
-5.51253
-3.32977
-1.86739
-0.945061
-0.667385
-0.193488
6.71252
6.57767
6.52882
6.42048
6.092
5.27051
3.15509
-2.18995
-12.6958
-18.5793
-20.8781
-17.1756
-11.3829
-8.28948
-5.6147
-3.60354
-2.19396
-1.24164
-0.772207
-0.276323
6.37558
6.25059
6.11626
5.87133
5.34427
4.28173
1.99771
-2.49195
-10.6449
-15.5962
-17.6889
-15.0609
-10.8525
-8.10978
-5.76076
-3.86017
-2.47137
-1.46875
-0.863092
-0.351838
6.04847
5.92547
5.71837
5.35761
4.68111
3.46508
1.17035
-2.74528
-9.18688
-13.4049
-15.1714
-13.6712
-10.3457
-7.86587
-5.76373
-3.99792
-2.6555
-1.65228
-0.94349
-0.41069
5.73536
5.61073
5.34304
4.88777
4.10079
2.79286
0.553291
-2.90069
-8.03566
-11.6184
-13.2246
-12.2562
-9.72673
-7.59405
-5.72816
-4.11265
-2.81075
-1.80715
-1.01222
-0.460784
5.44172
5.31335
4.99625
4.4661
3.60107
2.24512
0.0969327
-2.96784
-7.14315
-10.2209
-11.64
-11.1277
-9.21218
-7.379
-5.67558
-4.18375
-2.91648
-1.92376
-1.06486
-0.499727
5.17233
5.03826
4.68197
4.09434
3.17662
1.80229
-0.240629
-2.98752
-6.45893
-9.10488
-10.4052
-10.1514
-8.68001
-7.10946
-5.58023
-4.21415
-2.98853
-2.01565
-1.10791
-0.532705
4.93044
4.7899
4.40328
3.77272
2.82135
1.44835
-0.488638
-2.97532
-5.9166
-8.22481
-9.4131
-9.34651
-8.23046
-6.88845
-5.50178
-4.23607
-3.04405
-2.0882
-1.14197
-0.558494
4.71844
4.57188
4.1622
3.50047
2.52976
1.17013
-0.667979
-2.94326
-5.48871
-7.53072
-8.62357
-8.69064
-7.84157
-6.67671
-5.40869
-4.2294
-3.07303
-2.13839
-1.16553
-0.578055
4.53835
4.38689
3.96005
3.27645
2.29677
0.956112
-0.797271
-2.90552
-5.15313
-7.00487
-8.011
-8.15765
-7.51882
-6.49674
-5.3313
-4.22294
-3.09641
-2.17947
-1.18604
-0.594633
4.39209
4.2368
3.79753
3.09889
2.11533
0.793313
-0.889359
-2.87506
-4.89779
-6.5996
-7.53855
-7.74263
-7.26783
-6.35094
-5.26406
-4.20879
-3.10681
-2.20526
-1.19784
-0.605151
4.28107
4.12299
3.67515
2.96643
1.98039
0.673704
-0.955273
-2.84239
-4.73021
-6.28831
-7.18893
-7.46093
-7.08212
-6.24155
-5.21254
-4.19708
-3.11461
-2.22546
-1.20835
-0.61453
4.2064
4.04638
3.59321
2.87842
1.89147
0.595763
-0.995591
-2.8209
-4.61427
-6.1051
-6.99618
-7.23862
-6.94888
-6.16475
-5.17516
-4.18634
-3.11681
-2.23614
-1.21318
-0.619172
4.16906
4.00782
3.55203
2.83431
1.84652
0.555313
-1.01828
-2.81558
-4.55694
-6.01781
-6.89002
-7.12748
-6.89301
-6.12936
-5.15817
-4.18271
-3.11917
-2.24258
-1.21659
-0.622591
9.45101
7.60996
8.51713
8.66982
9.60947
11.4809
8.29609
7.60396
8.14275
8.45261
9.24588
10.7498
12.7361
15.349
-5.84716
-2.69487
-1.38926
0.206403
0.531963
0.269359
7.71782
7.45323
7.73578
8.1032
8.63454
9.47745
9.61834
8.43566
-9.1386
-5.80875
-2.61474
-1.24997
-0.264992
-0.0543653
0.148164
7.39163
7.18941
7.35807
7.56648
7.78103
7.89574
6.87341
3.71952
-14.6403
-24.251
-12.7975
-8.34614
-5.25207
-2.88184
-1.43213
-0.664975
-0.559888
-0.0628275
7.05129
6.89515
6.94625
6.99204
6.90846
6.48521
4.6612
-0.973897
-13.0456
-21.268
-27.1291
-20.6201
-12.1603
-8.5946
-5.53763
-3.30871
-1.85096
-0.944037
-0.668724
-0.203359
6.71233
6.57749
6.52885
6.42086
6.09298
5.27151
3.15705
-2.18679
-12.6963
-18.5783
-20.877
-17.1684
-11.3897
-8.29431
-5.62784
-3.59079
-2.18364
-1.24021
-0.772116
-0.283473
6.3754
6.25037
6.11625
5.87168
5.34511
4.28281
1.99975
-2.48921
-10.6428
-15.5962
-17.6866
-15.0588
-10.8572
-8.11431
-5.76898
-3.85315
-2.4658
-1.46864
-0.861341
-0.3574
6.04823
5.92524
5.71835
5.35793
4.68186
3.46616
1.17234
-2.74298
-9.18458
-13.4032
-15.1697
-13.6687
-10.3494
-7.86881
-5.76779
-3.99322
-2.65137
-1.65157
-0.940894
-0.414756
5.73512
5.61046
5.34298
4.88805
4.10145
2.79389
0.55508
-2.89851
-8.03373
-11.6164
-13.2218
-12.2562
-9.72944
-7.59638
-5.73065
-4.11019
-2.80853
-1.80704
-1.00993
-0.463436
5.44147
5.31308
4.99616
4.46632
3.60165
2.24607
0.0985312
-2.96601
-7.14104
-10.2193
-11.6369
-11.1271
-9.21411
-7.38076
-5.67729
-4.18229
-2.91477
-1.92341
-1.0629
-0.501563
5.17204
5.03798
4.68184
4.09451
3.17711
1.80316
-0.239224
-2.9859
-6.45711
-9.10323
-10.4025
-10.1516
-8.68147
-7.11063
-5.58133
-4.21326
-2.98739
-2.01539
-1.10634
-0.533792
4.93005
4.78961
4.40313
3.77284
2.82177
1.44913
-0.487394
-2.97395
-5.9149
-8.22347
-9.41051
-9.3468
-8.23168
-6.88938
-5.5027
-4.23572
-3.04334
-2.088
-1.14081
-0.559201
4.71799
4.57157
4.16202
3.50053
2.53011
1.17081
-0.66691
-2.94206
-5.4872
-7.52949
-8.62141
-8.69108
-7.84243
-6.67729
-5.40935
-4.22916
-3.07249
-2.13821
-1.16465
-0.578457
4.53793
4.38655
3.95984
3.27646
2.29706
0.956701
-0.79636
-2.90451
-5.1518
-7.00373
-8.00931
-8.15797
-7.51946
-6.49731
-5.33191
-4.22294
-3.0961
-2.17935
-1.18536
-0.594852
4.39168
4.23646
3.79731
3.09887
2.11556
0.793829
-0.888555
-2.87416
-4.89658
-6.5986
-7.5372
-7.74293
-7.26844
-6.35144
-5.26455
-4.20878
-3.10656
-2.20517
-1.19738
-0.605289
4.28066
4.12264
3.67491
2.96638
1.98057
0.674166
-0.954559
-2.8416
-4.72911
-6.28736
-7.18802
-7.46107
-7.08259
-6.242
-5.213
-4.19719
-3.11448
-2.22541
-1.20802
-0.61459
4.20599
4.04602
3.59296
2.87835
1.89163
0.596184
-0.994928
-2.82016
-4.61323
-6.10422
-6.99541
-7.23875
-6.9494
-6.16518
-5.17556
-4.18644
-3.1167
-2.23611
-1.21292
-0.619219
4.16866
4.00746
3.55178
2.83425
1.84668
0.555704
-1.01764
-2.81485
-4.55585
-6.01707
-6.88932
-7.12725
-6.89373
-6.12986
-5.15856
-4.18288
-3.11912
-2.24258
-1.21635
-0.622618
9.45066
7.60977
8.51728
8.66972
9.61064
11.484
8.29574
7.60371
8.14268
8.45257
9.24674
10.7495
12.7312
15.3433
-5.94379
-2.6637
-1.31585
0.21116
0.499833
0.251124
7.71732
7.45306
7.73533
8.10299
8.63472
9.47706
9.61601
8.43638
-9.13341
-5.93034
-2.58945
-1.17522
-0.262478
-0.0690841
0.147251
7.39119
7.18913
7.35778
7.56629
7.78115
7.89547
6.87281
3.72066
-14.6376
-24.2593
-12.7708
-8.34962
-5.30174
-2.86359
-1.39344
-0.665669
-0.567557
-0.0661277
7.05095
6.89479
6.9459
6.99179
6.90857
6.48502
4.66097
-0.973058
-13.0457