/*--------------------------------*- C++ -*----------------------------------*\
  =========                 |
  \\      /  F ield         | OpenFOAM: The Open Source CFD Toolbox
   \\    /   O peration     | Website:  https://openfoam.org
    \\  /    A nd           | Version:  10
     \\/     M anipulation  |
\*---------------------------------------------------------------------------*/
FoamFile
{
    format      ascii;
    class       surfaceScalarField;
    location    "2000";
    object      phi;
}
// * * * * * * * * * * * * * * * * * * * * * * * * * * * * * * * * * * * * * //

dimensions      [0 3 -1 0 0 0 0];

internalField   nonuniform List<scalar> 
155308
(
-3.9334
40.6543
106.629
3.75197
1.51404
-40.089
39.8871
102.244
-4.19644
1.34614
0.568675
0.498589
1.16752
-39.6778
39.4819
103.441
-3.81171
1.19802
0.461024
0.528061
0.286602
-10.4327
10.4619
26.9508
0.101789
-2.09218
-8.07316
7.75744
20.8929
2.23701
-5.85492
6.43245
-0.586862
18.3646
1.15777
5.89935
166.353
-5.81181
438.367
35.5355
-165.948
164.882
-34.1711
433.709
31.3584
-163.455
162.83
-29.4783
429.505
-4.32438
-166.213
166.352
-15.7571
430.911
-4.90457
14.3055
12.5715
-6.69253
-166.059
163.68
-4.00863
439.239
-6.0103
7.89841
8.55595
-4.91935
-158.734
150.671
10.3992
423.808
-4.10803
6.99266
3.10924
-41.1028
124.495
414.22
-25.5709
-15.1502
-23.1391
-143.301
32.0095
30.7897
32.397
33.2751
-8.22765
-22.7594
45.8801
96.8552
-10.9895
-14.8119
-16.8828
4.30249
9.33242
9.83833
6.3148
0.539845
-1.05047
28.1628
0.531637
-3.42873
5.20557
-2.74508
63.327
1.00691
1.8022
-10.3549
12.6585
-4.06323
72.3664
5.32988
-17.2769
83.2572
-24.0261
330.761
3.54437
5.30906
3.25819
-21.1314
-17.2782
-21.0844
-0.466772
-21.3095
22.8053
-1.07308
82.9233
4.58329
-105.627
109.635
-23.575
350.759
5.28534
4.75612
5.08064
677.365
-47.794
1792.88
5.33473
31.9305
11.4364
25.6842
671.811
-108.757
1787.57
32.9948
31.931
28.0362
26.7648
669.892
-77.9612
1778.92
27.8662
24.0458
22.5366
16.6064
668.762
-33.2753
1787.28
14.8063
7.23132
8.5746
7.13674
653.339
11.1512
1787.11
1.71094
-0.585229
5.13383
-0.0468715
668.449
111.094
1755.51
-15.8482
-87.1759
-11.2318
-1.14633
145.104
304.215
1739.82
148.765
175.347
186.054
-133.695
-154.398
22.5697
-12.176
-51.4675
177.09
443.999
45.9296
29.6134
43.7078
38.7719
-61.8468
-41.2335
-52.9771
2.33283
31.1347
3.55993
-6.5467
-100.759
35.8435
116.309
-49.6576
331.209
35.2924
-128.953
138.814
-44.7356
369.32
32.7731
-145.117
150.504
-37.8726
389.338
167.271
-116.165
1662.89
27.5584
25.7716
27.043
25.2297
-157.094
-174.712
-157.108
-174.937
169.825
167.255
169.765
24.568
166.568
-24.1521
416.798
-94.6579
1662.33
25.3807
21.3474
24.8813
20.0804
-166.331
-172.628
-166.4
-173.148
690.498
-45.1582
1823.78
687.293
-99.462
1824.54
686.305
-69.511
1818.35
683.985
-25.0857
1820.45
678.985
22.2235
1817.58
682.215
116.243
1803.59
160.345
264.185
1778.81
178.879
198.088
207.728
-164.295
180.066
151.28
434.052
-54.1084
-49.8329
53.7857
105.811
48.6605
-19.8973
13.7117
4.04697
23.093
0.308468
-10.0889
2.45663
-10.4764
82.9871
43.1369
-10.171
-9.77502
-9.33235
2.07166
2.72753
2.11756
-47.6767
83.5708
170.308
-6.95763
360.724
-43.8841
-49.8413
-47.0269
773.294
-193.025
1710.59
50.4008
49.5777
50.3418
49.2338
-188.475
-195.362
-192.405
-201.92
763.618
-168.588
1757.27
45.7648
43.2476
45.7133
43.4421
757.356
-144.824
1765.53
38.1545
35.065
38.7168
37.4837
751.248
-112.239
1771.26
749.216
-105.428
1781.27
27.4079
25.8706
25.8667
26.6127
-93.1145
1769.29
700.735
-42.4361
1850.99
699.115
-90.9772
1853.31
699.367
-61.5965
1848.07
699.381
-18.1544
1848.86
701.164
27.9369
1845.78
714.522
113.532
1834.07
789.47
208.301
1809.37
215.322
309.812
1843.5
-138.056
-116.243
-61.1018
-75.6016
213.932
216.02
214.885
-110.207
233.952
89.9617
456.14
-15.9013
241.851
34.3183
436.973
-13.303
-2.52313
-0.962015
-239.462
-7.12942
-60.8132
62.0704
108.282
6.30324
9.24694
-238.086
239.14
3.78253
423.092
-9.56468
8.75163
-4.14044
-1.17641
-224.676
219.403
6.66155
435.963
829.621
-252.861
1784.45
13.8711
68.4818
130.797
128.706
-216.985
-223.271
-193.237
-207.815
804.138
-167.516
1780.45
788.468
-153.037
1810.84
777.494
-134.556
1811.74
772.244
-108.028
1816.7
767.522
-101.541
1825.49
-90.7875
1814.59
709.459
-39.6037
1874.26
708.917
-83.0598
1877.11
710.436
-54.4652
1872.4
712.818
-12.9575
1872.66
719.398
30.1002
1869.1
739.768
107.221
1855.54
794.582
178.28
1839.47
864.403
248.908
1851.11
913.587
187.093
1850.42
-75.6232
-49.5358
-72.5215
-45.9927
940.968
74.3346
1809.23
-31.1235
-21.2165
-28.0125
-17.7234
926.148
-61.3349
1807.66
14.8035
27.9072
16.2058
25.9831
909.541
-68.4944
1879.04
-8.77989
1.36469
-5.55436
48.978
890.864
-121.714
1813.01
-10.3251
-14.0061
70.0446
98.0573
832.38
-199.517
1838.95
816.035
-149.015
1821.96
801.029
-137.845
1843.35
789.673
-123.574
1841.94
783.194
-102.041
1846.6
777.227
-96.0465
1855.5
-87.0457
1846.26
717.029
-36.6146
1894.43
717.284
-75.49
1897.32
719.943
-48.1411
1892.97
724.301
-9.26953
1892.89
734.779
29.9511
1887.91
764.43
89.5208
1877.3
806.032
133.468
1883.26
861.68
189.87
1885.62
900.923
144.608
1880.53
926.783
52.8671
1850.51
912.345
-48.3337
1860.66
898.308
-45.5371
1845.78
867.141
-97.8222
1862.64
785.058
-114.843
1802.71
822.891
-180.189
1795.78
808.435
-122.822
1870
796.725
-112.016
1867.61
789.282
-95.0016
1872.03
782.857
-89.9986
1880.19
-82.3056
1872.4
723.687
-33.5331
1912.18
724.607
-68.2115
1914.91
728.207
-42.5297
1910.9
734.077
-6.73479
1910.58
747.115
28.2145
1904.61
780.104
84.9104
1883.85
810.909
118.274
1895.59
858.709
147.451
1900.19
890.724
112.745
1904.56
912.765
36.2592
1881.13
904.235
-40.069
1891.37
895.899
-28.6636
1877.12
868.082
-77.2244
1891.39
848.936
-96.818
1891.8
826.853
-158.11
1893.97
813.314
-108.696
1893.14
801.994
-100.763
1890.1
794.313
-87.5834
1894.33
787.28
-83.1529
1901.55
-76.7186
1894.58
729.63
-30.3715
1928
731.09
-61.1557
1930.52
735.424
-37.4424
1926.8
742.359
-5.06098
1926.43
756.436
25.4851
1920.57
786.603
73.6019
1901.85
815.62
96.7721
1918.55
854.338
114.265
1918.91
881.701
86.1778
1924.26
900.902
23.3023
1905.3
895.314
-33.6432
1915.65
891.141
-16.539
1903.1
867.758
-60.5398
1915.35
850.51
-80.9831
1914.68
830.335
-137.624
1914.98
817.48
-95.3525
1913.08
806.33
-89.6901
1909.72
798.213
-79.6574
1913.36
790.682
-75.8099
1919.93
-70.4718
1913.53
735.012
-27.114
1942.3
736.911
-54.2679
1944.6
741.81
-32.7967
1941.23
749.503
-3.99719
1940.87
763.842
22.2738
1935.75
793.209
61.8055
1920.35
819.164
79.6963
1936.33
850.404
88.1845
1937.91
873.992
64.7882
1940.72
890.663
13.7404
1924.95
887.99
-28.9971
1934.96
876.652
17.3943
1903.74
867.451
-43.7214
1917.34
851.659
-66.916
1934.45
832.792
-118.407
1933.06
820.499
-82.6275
1930.34
809.649
-78.8046
1926.92
801.179
-71.309
1930.1
793.337
-68.0843
1936.04
-63.6827
1930.16
739.946
-23.8415
1955.42
742.205
-47.4612
1957.46
747.521
-28.4271
1954.45
755.702
-3.28089
1954.16
769.843
18.8864
1949.98
802.703
51.4763
1941.99
820.238
80.6441
1956.55
844.742
66.8531
1955.06
867.278
48.3503
1952.03
882.508
6.82593
1941.22
881.713
-25.0754
1950.91
915.952
-67.4349
2011.07
866.2
-52.7106
2018.18
852.239
-54.6599
1951.71
834.695
-100.682
1949.22
823.253
-70.6851
1945.7
812.676
-68.2499
1942.54
804.035
-62.7201
1945.24
795.814
-60.0587
1950.56
-56.4756
1945.18
744.489
-20.5001
1967.49
747.043
-40.7103
1969.32
752.638
-24.2547
1966.67
761.166
-2.79352
1966.42
775.072
15.7415
1962.58
794.331
41.282
1951.13
823.935
72.5961
1963.01
840.348
69.0703
1969.65
862.009
35.7284
1961.95
876.071
2.24107
1955.34
876.558
-21.4266
1964.71
870.76
-55.3477
1958.16
865.233
-41.9002
1957.59
853.099
-44.0028
1966.94
836.215
-83.9991
1963.99
825.611
-59.2639
1959.29
815.278
-57.9125
1956.75
806.455
-53.9134
1959.01
798.018
-51.7641
1963.65
-48.9133
1958.97
748.713
-17.1657
1978.81
751.506
-34.0069
1980.36
762.071
-12.3046
1978.1
769.899
21.5567
1977.54
785.696
37.376
1972.4
796.985
55.8561
1965.78
816.447
57.9117
1974.17
838.448
53.1757
1981.5
858.728
24.9772
1972.29
871.252
-0.566415
1968.85
872.635
-17.8981
1977.26
868.697
-44.7269
1971.59
864.474
-32.827
1972.41
853.7
-34.636
1980.79
837.042
-68.1846
1977.87
827.528
-48.3518
1971.31
817.617
-47.8141
1969.81
808.653
-45.0188
1971.75
800.157
-43.3258
1975.68
-41.0965
1971.71
752.659
-13.7838
1989.39
755.662
-27.2643
1990.69
760.407
-9.81864
1988.78
769.694
17.3623
1987.54
779.412
32.0082
1978.1
799.961
39.8336
1977.94
818.257
44.6446
1985.85
838.604
40.1777
1991.86
856.887
17.8105
1982.9
867.97
-0.813927
1981.17
870.147
-14.2638
1988.51
867.446
-35.1245
1984.1
864.219
-25.0331
1985.8
854.488
-26.4671
1993.56
819.112
-31.7457
1965.06
829.541
-55.8746
1959.8
819.938
-37.965
1981.95
810.925
-36.0367
1983.66
802.31
-34.7648
1986.89
-33.0917
1983.55
756.365
-10.4066
1999.38
759.531
-20.5524
2000.47
764.358
-7.40442
1998.91
773.882
13.026
1997.44
787.702
24.3453
1992.21
803.14
29.2607
1996.39
819.905
32.5218
1997.74
839.176
28.4751
2001.25
855.112
12.0743
1993.58
866.31
-1.72346
1992.65
869.973
-11.2412
1998.74
867.287
-25.3753
1995.73
864.542
-17.9806
1998.1
855.699
-19.113
2005.32
846.298
-23.2749
2005.7
831.661
-41.4974
2002.55
822.173
-28.3177
1993.48
813.227
-27.0672
1994.85
804.559
-26.1498
1997.3
-24.931
1994.72
759.862
-6.96905
2008.87
763.157
-13.7724
2009.7
768.019
-4.96245
2008.57
777.404
8.64868
2007.53
791.934
13.7662
2005.78
805.522
18.1818
2010.22
821.594
21.1738
2007.87
839.603
18.2691
2009.74
854.825
7.33204
2003.9
867.333
1.73897
2003.19
869.17
0.227539
2008.03
867.987
-16.8164
2006.44
865.654
-11.668
2009.61
857.562
-12.3892
2016.21
848.479
-15.2413
2016.6
834.074
-27.4767
2012.55
824.743
-18.8064
2004.41
815.782
-18.034
2005.32
807.073
-17.4601
2007.15
-16.6632
2005.37
763.177
-3.49765
2017.9
766.584
-6.92308
2018.49
771.429
-2.51157
2017.8
780.586
4.29542
2017.21
793.485
6.67342
2014.8
807.522
8.95903
2017.48
823.373
10.3984
2016.93
840.683
9.02528
2017.59
856.505
4.91429
2013.68
864.231
4.68487
2013.05
870.273
0.104071
2016.59
869.547
-8.5392
2016.58
867.277
-5.66919
2020.44
859.666
-6.0624
2026.43
850.847
-7.56757
2026.86
836.689
-13.6985
2022.03
827.392
-9.397
2014.84
818.361
-9.01764
2015.42
809.634
-8.75105
2016.53
-8.36942
2015.56
766.309
2026.48
769.788
2026.76
774.589
2026.44
783.58
2026.19
795.526
2025.45
809.539
2026.05
825.19
2025.29
842.48
2024.53
855.579
2022.41
865.931
2021.8
872.61
2024.1
871.789
2025.54
869.512
2030.12
862.182
2035.46
853.457
2035.68
839.324
2030.02
829.902
2023.61
820.852
2023.73
812.083
2024.04
2023.73
-106.176
-0.499305
40.5118
0.357051
106.029
-103.815
-40.4888
1.42424
40.3897
-1.23767
103.728
-104.946
0.653792
-40.4631
40.4678
-0.689906
104.977
-95.8216
-0.415489
-37.5348
35.8289
1.72741
96.2156
-90.6676
-37.2941
33.0802
3.26954
90.5222
1.08984
-79.8222
-29.2909
27.8595
0.290187
80.0683
0.895126
-1.11924
-438.084
165.725
1.28343
438.014
-0.272573
-433.693
-165.263
164.358
1.17423
433.696
-4.10057
-428.352
-163.038
161.682
5.76798
428.041
-18.2301
-430.472
-160.646
162.012
17.4584
429.878
-21.267
-442.342
-164.952
162.245
23.4994
442.817
-26.1202
-425.716
-155.868
148.216
34.2265
425.262
-415.218
-6.66102
134.067
52.8013
413.048
-7.62597
-13.4668
-14.7676
-142.177
-101.602
-20.9638
-31.6429
32.3678
19.3821
102.459
-28.0409
-0.895418
0.430171
28.0192
0.486968
-63.1358
-3.44401
5.18213
-2.66428
63.0885
0.973443
-72.0246
1.73912
-10.2187
12.5073
-3.93906
71.936
-330.322
5.39143
-17.1725
83.2592
-24.4672
330.125
3.6238
5.39846
3.29671
-21.0375
-17.1478
-20.9482
-82.8048
-0.428405
-21.3078
22.8126
-1.07679
82.8052
4.60672
-105.689
-350.524
109.513
-23.457
350.412
5.28972
4.76984
5.07878
675.112
11.1209
1793.14
-1.73493
-0.79778
-2.96056
-4.26843
670.116
23.5039
1787.51
-1.70003
-2.75872
-6.2102
-7.78231
667.495
50.3588
1778.42
-6.7838
-11.9667
-11.8421
-16.6418
665.037
84.9269
1788.86
-17.4219
-20.8583
-21.6137
-24.1496
649.599
128.91
1790.22
-25.748
-29.348
-28.8894
-32.598
630.714
199.108
1760.26
-39.7298
-45.1561
-44.0697
-56.0174
160.961
339.822
1718.22
166.516
155.048
162.179
-60.3675
-83.5159
-81.9916
-106.337
-434.613
-133.107
138.146
427.263
40.7362
42.1521
41.5426
38.8401
-38.8819
-11.6976
40.2905
8.63422
1.65482
33.9717
-100.349
-329.742
115.312
-47.3001
328.108
34.1331
-368.588
-128.139
138.131
-43.0061
367.469
32.1627
-144.668
-389.024
150.21
-36.9979
388.317
167.275
-116.466
1661.36
27.5656
25.6537
28.2184
26.1085
-156.891
-174.879
-156.733
-174.947
169.801
167.144
169.68
24.3767
-416.823
166.628
-23.6612
416.755
-93.4318
1662.04
25.0402
20.901
25.091
19.9896
-166.27
-172.643
-166.244
-173.102
687.993
10.8367
1823.93
685.609
26.0957
1824.33
683.701
52.3196
1818.3
681.117
86.9335
1821.03
674.896
134.09
1818.62
677.163
199.985
1800.44
176.721
321.497
1767.87
181.741
171.824
176.137
-442.226
-129.834
183.304
120.613
444.863
-107.673
-49.8228
-51.2543
54.7344
47.4209
106.595
-86.3282
-56.8946
46.588
9.13423
86.7877
0.712908
2.82516
-9.97359
-84.8399
-21.2781
89.2056
45.2895
2.18515
2.21508
2.36374
-10.1034
-8.26776
-9.62156
792.853
-254.737
1667.04
-179.735
-194.941
-187.658
-201.067
64.8794
49.515
45.5098
49.3216
-394.021
-398.577
-429.21
-429.172
774.132
-180.944
1713.02
48.7153
47.8928
50.8417
49.7806
764.941
-164.951
1757.18
43.8659
41.6926
45.3689
43.3025
758.892
-143.794
1766.77
37.0497
34.2798
39.0508
38.2208
752.014
-111.694
1773.37
749.56
-104.295
1783.09
26.7706
25.123
26.1372
26.9019
-91.3452
1769.93
698.167
10.2778
1850.98
697.353
27.1732
1853.05
696.748
53.047
1847.95
696.332
87.1773
1849.03
696.877
133.123
1846.2
708.319
192.183
1830.43
750.433
280.392
1808.36
210.791
411.237
1846.05
-117.099
-128.552
-121.749
-136.032
209.105
210.524
209.656
-134.159
227.151
117.491
459.213
-458.905
-437.521
-58.862
-234.241
233.369
59.9733
437.282
-425.891
-4.4332
238.043
14.9803
425.532
-1.50518
-6.81509
-3.70378
-236.207
9.70807
-235.702
-421.187
218.38
-50.6099
435.193
19.8571
9.49473
14.8668
794.841
-277.566
1803.21
89.66
101.23
60.4612
74.7758
-215.436
-220.559
-221.653
-223.442
-441.207
-430.701
-446.776
-446.84
814.777
-251.21
1760.98
803.954
-159.206
1769.54
789.718
-150.06
1810.19
778.309
-133.216
1812.57
772.466
-107.09
1817.94
767.314
-100.264
1826.62
-89.061
1815.06
706.874
9.63379
1874.16
707.123
27.2499
1876.79
707.819
52.5272
1872.22
709.739
85.2712
1872.64
714.745
128.086
1869.13
731.998
180.204
1850.27
772.657
241.158
1838.04
842.682
335.5
1856.83
902.683
299.41
1852.63
-102.459
-75.5592
-105.307
-78.2992
930.735
189.616
1808.43
-57.2894
-46.7429
-61.0558
-51.7774
919.382
21.1525
1815.8
-12.9104
9.2318
-17.9227
3.66237
879.697
-75.0167
1812.18
44.95
95.2028
19.086
22.3231
828.095
-261.453
1848.49
820.644
-223.364
1818.56
814.057
-141.102
1810.44
801.5
-135.382
1841.23
789.965
-122.319
1842.58
783.205
-101.086
1847.36
777.167
-94.8614
1856.13
-85.5163
1846.7
714.46
8.90569
1894.31
715.465
26.5494
1897.02
717.368
50.8055
1892.79
721.199
81.5326
1892.8
729.302
120.352
1887.54
751.676
172.186
1862.94
787.533
220.186
1868.38
841.394
285.85
1881.41
890.887
249.444
1881
919.437
161.082
1850.49
911.143
28.4869
1861.62
886.776
-53.8911
1849.02
835.507
-228.267
1880.72
791.923
-232.332
1855.26
820.376
-214.065
1840.29
808.641
-120.894
1867.24
796.827
-110.926
1868.03
789.34
-94.066
1872.5
782.903
-88.9158
1880.68
-81.0029
1872.8
721.149
8.15317
1912.05
722.748
25.2903
1914.57
725.669
48.14
1910.64
730.974
76.4063
1910.41
740.967
110.869
1904.1
761.829
155.963
1879.21
790.872
187.411
1899.32
839.499
236.557
1900.86
881.066
207.896
1904.54
905.897
136.157
1881.22
903.184
30.477
1892.09
884.914
-37.6959
1879.2
840.701
-199.435
1906.77
821.372
-206.3
1885.1
824.282
-189.921
1866.92
813.446
-107.152
1890.23
802.133
-99.8942
1890.38
794.479
-86.7905
1894.71
787.288
-82.2712
1902.1
-75.6922
1894.9
727.129
7.40066
1927.82
729.212
23.5828
1930.14
732.93
44.6965
1926.53
739.347
70.2366
1926.18
750.387
100.379
1920.02
772.767
137.84
1897.59
797.045
159.71
1921.97
837.654
195.983
1918.88
872.652
172.821
1924.34
894.47
114.241
1905.39
894.182
30.403
1916.01
881.528
-25.8513
1903.91
832.638
-113.513
1878.32
825.896
-159.721
1874.84
827.868
-167.417
1890.5
817.617
-94.1001
1910.28
806.573
-88.9658
1909.84
798.389
-78.9772
1913.73
790.778
-75.0692
1920.34
-69.6539
1913.88
732.552
6.59744
1942.12
735.007
21.5303
1944.19
739.369
40.6799
1940.88
746.589
63.3528
1940.53
758.277
89.282
1935.16
780.838
119.188
1916.44
802.262
135.675
1938.94
836.543
161.396
1938.21
865.818
143.582
1940.69
884.66
95.4208
1924.93
886.797
28.3787
1934.85
877.277
-60.2533
1947.66
862.417
-136.193
1954.88
829.77
-138.352
1945.73
830.489
-145.72
1910.64
820.653
-81.6566
1927.74
809.807
-78.247
1927.05
801.296
-70.7919
1930.43
793.448
-67.5435
1936.36
-63.0743
1930.5
737.511
5.8205
1955.17
740.264
19.2235
1957.01
745.129
36.2163
1954.05
752.906
55.9632
1953.77
764.887
77.8861
1949.4
787.824
103.205
1935.03
806.293
120.57
1953.18
834.52
131.567
1956.66
860.329
117.728
1952.07
876.953
78.9902
1941.03
880.311
25.5061
1950.42
910.075
-39.4536
1960.5
862.054
-32.1573
1962.17
832.575
-117.843
1960.68
832.283
-124.97
1928.76
823.227
-69.7999
1942.9
812.746
-67.7984
1942.57
804.017
-62.3084
1945.48
795.924
-59.6232
1950.74
-56.0041
1945.46
742.076
5.00375
1967.23
745.081
16.72
1968.81
750.305
31.4346
1966.23
758.47
48.2457
1965.97
770.454
66.5197
1961.97
788.327
85.9747
1950.49
808.696
100.023
1963.19
833.009
106.551
1970.35
856.021
96.0618
1960.61
870.939
64.5254
1954.88
875.019
22.1392
1964
868.927
-31.4422
1956.24
861.717
-24.5435
1957.18
835.125
-98.2453
1973.93
832.468
-104.293
1945.97
825.263
-58.1767
1954.87
815.336
-57.5209
1956.4
806.43
-53.5987
1959.21
798.128
-51.4581
1963.79
-48.5665
1959.22
746.344
4.19613
1978.49
749.512
14.1131
1979.8
755.015
26.4504
1977.58
763.432
40.338
1977.03
775.157
55.619
1971.57
791.719
69.9964
1965.2
811.119
80.9062
1973.89
832.607
84.9343
1981.62
853.333
76.559
1971.07
866.49
51.8264
1968.39
871.055
18.5525
1976.28
866.694
-24.7675
1969.28
861.499
-18.4298
1971.49
837.242
-79.4143
1986.22
830.507
-80.6863
1961
826.641
-45.5968
1962.59
817.593
-47.4575
1968.8
808.69
-44.7917
1971.85
800.188
-43.1286
1975.85
-40.8634
1971.86
750.332
3.35103
1989.06
753.63
11.3589
1990.14
759.323
21.2962
1988.24
767.896
32.4079
1986.9
778.593
44.2231
1978.8
795.087
51.3185
1980.12
813.535
62.8167
1985.49
833.074
65.5961
1991.66
851.535
58.8448
1982.16
863.564
40.307
1980.66
868.391
14.9916
1987.25
865.301
-19.1265
1981.55
861.777
-13.5484
1984.44
840.203
-62.195
1997.91
820.748
-76.6793
1980.5
828.355
-69.9767
1976.57
819.823
-37.6829
1980.7
810.951
-35.8996
1983.64
802.331
-34.6111
1987
-32.8914
1983.63
754.075
2.50799
1999.02
757.483
8.57511
1999.85
763.311
16.0324
1998.34
772.045
24.3205
1996.79
785.191
33.4992
1989.78
798.922
37.649
1996.33
815.88
46.2088
1997.39
834.247
47.6239
2000.86
850.655
43.0093
1993
862.292
29.3005
1992.02
868.024
10.8011
1997.19
865.066
-13.3139
1992.88
862.565
-9.41207
1996.46
844.012
-46.0428
2007.72
835.331
-56.9525
1994.66
830.647
-52.0693
1989.32
822.202
-28.1033
1992.35
813.241
-26.9362
1994.85
804.581
-26.0192
1997.37
-24.815
1994.82
757.617
1.66692
2008.5
761.096
5.71554
2009.08
767.006
10.7036
2007.99
775.789
16.1873
2006.88
789.67
22.645
2002.75
802.224
26.8387
2008.48
818.362
30.4523
2007.49
835.339
31.1169
2009.27
850.878
28.0756
2003.3
861.565
19.3418
2002.46
867.224
6.96897
2006.21
865.704
-8.74058
2003.39
864.155
-5.92419
2007.67
848.553
-30.393
2016.16
840.044
-37.8383
2006
833.463
-34.6012
2001.66
824.838
-18.6782
2003.61
815.802
-18.0013
2005.42
807.092
-17.3949
2007.23
-16.5959
2005.43
760.98
0.812215
2017.52
764.497
2.84236
2017.84
770.463
5.35673
2017.18
779.202
8.11088
2016.55
791.326
11.1434
2014.18
805.124
13.4007
2017.12
820.925
15.1002
2016.48
837.12
15.4655
2017.04
852.113
13.7665
2012.99
862.602
9.60601
2012.3
868.055
3.49112
2014.62
867.168
-4.44859
2013.17
866.32
-2.80737
2018.18
853.448
-15.1707
2024.08
845.113
-18.964
2016.32
836.345
-17.2924
2013.49
827.413
-9.32121
2014.42
818.374
-9.01398
2015.47
809.646
-8.71852
2016.58
-8.33094
2015.61
764.171
2026.06
767.684
2026.09
773.661
2025.82
782.385
2025.57
794.108
2024.88
807.974
2025.58
823.554
2024.81
839.623
2023.93
854.103
2021.7
864.454
2021.06
870.088
2021.95
869.333
2021.84
869.111
2027.54
858.818
2030.58
850.294
2025.24
839.187
2023.83
829.933
2023.54
820.865
2023.78
812.094
2024.09
2023.78
-105.958
-1.07541
40.4365
0.847059
105.905
-40.3825
-103.624
-0.458787
0.548704
103.623
40.2936
-104.962
-1.14922
-40.4602
40.4582
1.11853
104.995
-96.4032
-2.24522
-37.6771
35.9401
3.89382
96.4916
-91.0454
-37.6622
33.1939
4.85785
91.161
-0.505145
-80.2345
-29.3089
28.0122
2.11391
80.2516
-0.834328
-2.5391
-437.925
165.613
2.80685
437.761
-4.54763
-433.583
-165.144
164.236
5.56909
433.47
-8.86493
-427.822
-162.883
161.405
10.4436
427.721
-22.9452
-429.53
-160.244
161.71
21.7071
429.303
-23.3418
-442.597
-164.876
162.126
26.4392
442.249
-30.1721
-424.858
-155.648
147.833
38.3485
424.496
-15.6396
-412.624
133.647
76.0086
412.4
-17.4975
-16.3248
-17.9255
-142.045
-103.491
-30.3159
-30.5475
32.3695
28.2265
103.759
-27.9188
-0.747681
0.345768
27.892
0.428708
-62.9388
-3.47604
5.16907
-2.6104
62.9166
0.939558
-71.8105
1.71014
-10.1143
12.4073
-3.96309
71.7704
-330.156
5.47119
-17.1013
83.2665
-25.3546
330.268
3.71037
5.45409
3.34135
-20.9151
-17.0987
-20.8859
-82.9371
-0.337393
-21.3621
22.887
-1.26661
83.0162
4.68258
-105.93
-350.428
109.55
-23.7994
350.646
5.351
4.81239
5.116
675.991
15.5085
1793.16
-3.3972
-4.27518
-2.65642
-4.03611
670.823
32.7484
1787.26
-6.17496
-7.32892
-6.11404
-7.71366
668.156
59.3751
1778.08
-11.4073
-16.4886
-11.8203
-16.6478
666.386
93.2334
1788.9
-21.5475
-24.8254
-21.4575
-23.6786
651.053
137.1
1790.43
-29.4416
-32.6878
-28.1435
-31.7029
632.377
218.319
1760.23
-44.1708
-56.176
-43.3306
-55.9405
154.468
379.964
1717.59
162.745
154.166
162.065
-82.8975
-107.67
-82.7002
-107.129
-425.936
-153.939
150.817
424.959
41.1802
38.281
40.863
38.2428
-41.6268
-6.73294
41.8396
10.264
-3.74397
33.1568
-99.5084
-327.173
113.898
-47.3661
326.993
33.7403
-366.423
-126.959
137.208
-42.8124
365.246
32.7552
-143.926
-387.73
149.618
-37.7421
387.025
167.067
-121.1
1659.58
28.8637
26.7473
29.2459
27.0564
-156.428
-174.82
-156.335
-174.786
169.694
166.99
169.579
25.335
-416.464
166.416
-24.5625
416.343
-94.506
1661.61
25.4511
21.0125
25.4651
20.0648
-166.07
-172.548
-166.068
-172.986
687.95
15.3632
1824.06
685.48
35.194
1824.35
683.605
61.1916
1818.36
681.259
95.3015
1821.31
675.115
142.883
1818.99
674.216
218.968
1800.69
172.521
357.445
1767.22
177.027
171.766
176.074
-142.043
-443.603
180.481
133.031
444.656
-106.117
-51.7287
-49.8101
53.5962
48.0969
105.963
-87.6295
-57.637
47.5884
11.359
87.4792
-1.16017
1.05659
-10.2434
-88.9093
88.9673
44.5076
-8.90254
1.1355
1.44379
1.90827
-10.2817
-10.2708
-10.4114
788.635
-194.451
1666.41
-188.789
-201.388
-188.876
-201.78
44.232
48.148
44.8654
50.0285
773.739
-183.923
1712.34
49.4163
48.7568
51.012
50.3157
765.056
-165.749
1755.97
44.1918
42.0203
45.7929
43.6411
759.482
-145.547
1765.8
37.7455
35.2924
39.7643
39.2876
752.407
-113.998
1773.34
749.605
-105.706
1783.48
27.6423
25.7165
27.0705
27.6838
-91.4409
1769.96
698.094
14.7354
1851.15
697.242
35.9046
1853.19
696.652
61.5526
1848.18
696.32
95.2734
1849.39
696.966
141.788
1846.65
705.1
210.327
1830.94
748.212
314.101
1808.59
210.351
427.024
1845.94
-126.163
-135.949
-120.916
-134.935
208.792
210.444
209.68
-136.349
-459.269
226.718
120.141
459.109
-63.539
-437.117
-233.805
233.275
64.2197
436.966
-6.72853
-425.237
238.426
20.4192
425.046
-3.81732
-7.52517
-4.50207
-236.081
6.06768
-237.069
-435.715
229.562
-19.2175
435.814
6.82991
6.50908
7.21891
841.165
-215.232
1802.17
60.0383
73.734
59.6506
72.4145
-221.637
-224.12
-221.499
-223.471
815.958
-165.405
1757.14
805.646
-171.811
1767.74
790.587
-150.508
1810.01
778.944
-133.97
1812.64
772.652
-108.068
1818.3
767.272
-100.719
1827.01
-88.7286
1815.29
706.798
13.8408
1874.42
707.019
35.4074
1877.07
707.728
60.5126
1872.55
709.674
92.9068
1873.06
714.678
136.293
1869.62
727.6
196.878
1850.79
768.072
273.161
1838.51
843.428
351.105
1857.39
903.389
305.737
1853.19
-105.577
-78.5133
-104.729
-77.4332
931.282
198.544
1808.16
-61.5943
-51.5705
-61.0059
-51.9965
924.963
38.5082
1814.85
-17.853
2.6144
-18.5568
2.55991
896.313
-27.1709
1810.74
14.0881
14.575
14.0533
14.5498
855.199
-177.601
1851.98
833.201
-141.789
1816.94
817.315
-153.255
1807.77
802.311
-135.467
1841.2
790.417
-122.469
1842.97
783.335
-101.45
1847.82
777.055
-94.9021
1856.6
-85.0395
1846.95
714.39
12.8254
1894.6
715.374
34.1322
1897.31
717.286
58.244
1893.14
721.11
88.6438
1893.24
728.953
127.96
1888.03
743.053
182.383
1863.34
781.555
234.083
1868.96
841.022
291
1882.05
890.311
256.012
1881.44
919.157
169.597
1850.59
912.99
44.9731
1861.33
893.601
-7.84734
1849.08
861.095
-149.157
1884.78
840.112
-120.573
1855.03
824.061
-134.404
1837.49
809.309
-120.902
1867.43
797.29
-110.873
1868.45
789.468
-94.1445
1873.02
782.848
-88.7692
1881.17
-80.5019
1873.1
721.092
11.7442
1912.36
722.67
32.2178
1914.9
725.587
54.9283
1911.04
730.867
82.936
1910.83
740.47
117.906
1904.55
757.13
165.292
1879.64
790.204
200.305
1900.03
838.861
241.831
1901.37
880.47
214.032
1904.92
905.767
144.108
1881.41
904.83
45.9681
1892.03
891.177
5.52462
1879.48
863.522
-125.752
1911.02
843.045
-101.281
1886.28
827.915
-116.586
1864.23
813.975
-107.154
1890.42
802.382
-99.7347
1890.83
794.459
-86.7503
1895.23
787.338
-82.0919
1902.54
-75.2454
1895.26
727.068
10.5989
1928.15
729.124
29.8281
1930.48
732.855
50.8256
1926.9
739.236
76.1348
1926.6
749.961
106.728
1920.48
768.378
146.457
1898.01
796.419
171.695
1922.54
836.941
200.888
1919.3
872.089
178.493
1924.73
894.35
121.532
1905.71
895.453
44.6494
1916.23
886.812
13.8819
1904.19
826.476
-68.8274
1881.73
845.221
-123.063
1877.88
831.187
-100.218
1888.17
818.056
-94.1245
1910.38
806.641
-88.7787
1910.29
798.357
-78.8742
1914.14
790.777
-74.9168
1920.75
-69.3082
1914.23
732.473
9.48177
1942.37
734.916
27.0879
1944.49
739.279
46.1347
1941.21
746.47
68.5785
1940.9
757.883
94.9523
1935.52
776.944
127.041
1916.8
801.55
146.622
1939.4
836.139
165.922
1938.59
865.317
148.949
1941.05
884.555
101.965
1925.25
887.67
41.2887
1935.09
903.099
-2.44692
1948.56
867.991
-35.4251
1956.58
846.227
-104.175
1948.6
833.512
-85.3441
1908.48
821.023
-81.7271
1927.83
809.919
-78.0717
1927.44
801.398
-70.6522
1930.73
793.521
-67.3605
1936.68
-62.7723
1930.85
737.428
8.29612
1955.43
740.165
24.113
1957.25
745.031
41.0239
1954.3
752.774
60.5575
1954.05
764.554
82.8745
1949.7
783.624
107.67
1935.33
805.704
124.148
1953.58
835.017
136.155
1957.11
860.015
123.657
1952.37
876.867
84.8366
1941.3
880.921
36.9525
1950.71
891.775
-13.3504
1960.55
866.3
-10.2864
1962.5
846.796
-87.2124
1963.22
835.237
-71.898
1926.87
823.603
-70.097
1942.91
812.878
-67.678
1942.9
804.182
-62.2063
1945.73
796.003
-59.5019
1951.06
-55.8014
1945.82
741.982
7.1521
1967.41
744.973
20.9396
1969
750.203
35.5838
1966.44
758.335
52.1856
1966.21
770.159
70.7974
1962.22
787.684
89.8808
1950.75
808.243
103.269
1963.51
833.481
110.556
1970.71
855.828
101.15
1960.77
870.858
69.5305
1955.16
875.473
32.0791
1964.25
870.691
-8.8379
1956.51
865.27
-5.53107
1957.85
847.479
-71.6268
1976.14
836.208
-59.0892
1944.43
825.854
-59.2776
1954.41
815.445
-57.5518
1956.69
806.507
-53.5205
1959.46
798.131
-51.363
1964.03
-48.4211
1959.45
746.24
5.97777
1978.64
749.4
17.596
1979.99
754.905
29.8775
1977.78
763.279
43.6259
1977.22
774.714
59.1861
1971.75
791.192
73.2205
1965.38
810.643
83.6176
1974.09
832.769
88.159
1981.89
853.101
80.671
1971.21
866.396
56.0221
1968.61
871.367
26.9355
1976.45
868.02
-5.8321
1969.62
864.333
-2.45909
1972.1
847.917
-57.0591
1988.07
834.766
-44.7718
1959.83
827.638
-50.9266
1961.37
817.742
-47.6828
1968.82
808.757
-44.7211
1972.03
800.241
-43.0359
1976.04
-40.7402
1972.03
750.225
4.796
1989.17
753.516
14.1877
1990.26
759.213
24.0344
1988.39
767.671
35.0054
1987.06
778.397
48.3399
1978.92
794.578
56.8581
1980.3
813.067
64.9555
1985.67
832.873
68.1693
1991.84
851.283
62.0869
1982.33
863.449
43.67
1980.85
868.503
21.7373
1987.39
866.279
-3.89718
1981.84
863.99
-0.693263
1984.96
849.418
-44.1711
1999.6
838.862
-34.0465
1980.33
829.657
-40.5961
1975.45
820.024
-37.9432
1980.6
811.001
-35.8568
1983.8
802.369
-34.5585
1987.15
-32.8433
1983.78
753.967
3.59157
1999.13
757.354
10.6744
1999.97
763.192
18.1062
1998.43
771.796
26.3081
1996.88
783.481
36.5527
1989.89
798.474
41.7197
1996.47
815.48
47.8104
1997.53
833.958
49.5342
2001.01
850.463
45.4278
1993.16
862.155
31.8431
1992.15
867.912
15.8799
1997.29
865.616
-1.83887
1993.12
864.28
0.318967
1996.78
851.065
-32.361
2009.13
841.56
-24.8806
1995
831.892
-30.1652
1988.56
822.332
-28.3319
1992.3
813.274
-26.9438
1994.99
804.615
-26.0206
1997.49
-24.7727
1994.92
757.513
2.38391
2008.57
760.953
7.15752
2009.16
766.891
12.1152
2008.04
775.577
17.5456
2006.95
788.103
23.9403
2002.84
801.888
27.8181
2008.59
818.046
31.5556
2007.59
835.078
32.3992
2009.37
850.703
29.6836
2003.42
861.392
21.0367
2002.58
866.83
10.3507
2006.3
865.904
-1.06245
2003.53
865.367
0.599139
2007.93
853.088
-21.2332
2017.31
844.055
-16.3609
2006.51
834.362
-19.9321
2001.12
824.884
-18.8331
2003.59
815.838
-17.974
2005.5
807.117
-17.3692
2007.3
-16.5806
2005.52
760.867
1.20544
2017.56
764.373
3.58619
2017.91
770.345
6.07012
2017.25
779.046
8.75134
2016.64
791.096
11.7924
2014.28
804.893
13.9439
2017.19
820.7
15.6527
2016.57
836.892
16.1053
2017.14
851.91
14.5814
2013.08
862.411
10.4543
2012.38
867.518
5.18687
2014.68
867.007
-0.609107
2013.23
866.901
0.461659
2018.42
855.43
-10.5202
2024.84
846.637
-8.12739
2016.88
836.818
-9.88994
2013.27
827.451
-9.42236
2014.37
818.404
-9.01788
2015.56
809.664
-8.69942
2016.65
-8.31847
2015.66
764.057
2026.14
767.56
2026.17
773.559
2025.89
782.251
2025.63
793.984
2024.93
807.848
2025.66
823.42
2024.9
839.434
2024.02
853.939
2021.77
864.293
2021.16
869.405
2022.03
868.749
2021.89
869.044
2027.7
858.056
2031.05
849.435
2025.73
839.392
2023.98
829.965
2023.55
820.89
2023.84
812.118
2024.16
2023.85
-105.926
-1.06863
40.4265
0.829172
105.884
-103.614
-0.415229
-40.4012
0.517216
103.623
40.2899
-104.991
-1.06642