/*--------------------------------*- C++ -*----------------------------------*\
  =========                 |
  \\      /  F ield         | OpenFOAM: The Open Source CFD Toolbox
   \\    /   O peration     | Website:  https://openfoam.org
    \\  /    A nd           | Version:  10
     \\/     M anipulation  |
\*---------------------------------------------------------------------------*/
FoamFile
{
    format      ascii;
    class       volVectorField;
    location    "2000";
    object      U;
}
// * * * * * * * * * * * * * * * * * * * * * * * * * * * * * * * * * * * * * //

dimensions      [0 1 -1 0 0 0 0];

internalField   nonuniform List<vector> 
52338
(
(7.08611 0.118894 19.3691)
(7.30691 0.146292 19.2566)
(7.12558 0.0238355 19.1338)
(6.91321 0.222389 18.6259)
(6.44443 0.293741 17.6516)
(5.43162 0.305572 15.805)
(7.35067 0.0730383 20.1537)
(7.42528 0.121878 20.117)
(7.34452 0.165554 20.093)
(7.27841 0.298717 20.0377)
(7.14107 0.431886 19.9447)
(6.88299 0.703732 19.8209)
(6.31472 1.19174 19.3062)
(4.33475 1.89199 16.2332)
(-0.345758 -0.0161377 11.6366)
(0.834242 -0.190172 13.2171)
(2.25903 -0.3169 14.382)
(3.55111 -0.329212 15.4821)
(3.86999 -0.113054 15.3751)
(4.76307 -0.337811 16.3127)
(7.57017 0.0721115 20.762)
(7.57605 0.133013 20.7495)
(7.53747 0.241019 20.7204)
(7.47328 0.373434 20.6725)
(7.36372 0.579551 20.6059)
(7.19812 0.947476 20.471)
(6.99422 1.73954 20.2462)
(6.63523 2.81629 19.3312)
(0.0802885 0.181384 8.39531)
(4.90539 -0.762158 15.3423)
(6.00103 -0.800843 17.0002)
(6.60317 -0.712006 17.9795)
(7.47058 -0.53944 19.1638)
(7.42378 -0.447365 19.0822)
(7.6806 -0.420179 19.4734)
(7.70195 0.0649195 21.1348)
(7.70583 0.14469 21.1217)
(7.68078 0.253444 21.097)
(7.63983 0.400881 21.0579)
(7.58172 0.618161 20.9994)
(7.51501 0.985487 20.8944)
(7.56233 1.66284 20.7164)
(7.63224 2.5743 20.3445)
(9.21654 3.69595 19.283)
(9.44491 1.26151 16.9007)
(7.51348 -0.837919 16.7531)
(8.25801 -1.03592 18.6294)
(8.65773 -0.929746 19.8419)
(8.53902 -0.839952 20.1486)
(8.43791 -0.701368 20.3352)
(8.39066 -0.506931 20.4697)
(8.39581 -0.486281 20.5295)
(8.39726 -0.427148 20.6352)
(7.81263 0.0609421 21.4468)
(7.81806 0.1497 21.4349)
(7.80701 0.262872 21.414)
(7.79097 0.414698 21.3813)
(7.77723 0.632712 21.3302)
(7.79898 0.965687 21.249)
(7.94328 1.52944 21.1036)
(8.61887 2.12036 20.9011)
(9.59681 2.31267 20.5668)
(10.4818 1.35706 20.1497)
(11.0012 0.470618 19.7325)
(10.2312 -0.818291 19.8814)
(9.68566 -0.868296 20.1558)
(9.28037 -0.87525 20.5556)
(9.07207 -0.841197 20.6998)
(8.85353 -0.753298 20.837)
(8.70794 -0.647519 20.9289)
(8.62238 -0.508366 21.007)
(8.61344 -0.47121 21.0402)
(8.57514 -0.423523 21.1087)
(7.90844 0.0566384 21.7146)
(7.91597 0.150531 21.7042)
(7.91761 0.264351 21.6864)
(7.92315 0.414069 21.6586)
(7.94781 0.620355 21.6166)
(8.02272 0.918095 21.5465)
(8.24106 1.3301 21.4505)
(8.84987 1.84397 21.2778)
(9.81523 1.55641 21.1092)
(10.4135 1.05834 20.9818)
(10.5724 0.0904935 20.9251)
(10.2502 -0.422031 20.8994)
(9.74993 -0.703085 20.976)
(9.44926 -0.75288 21.0871)
(9.22482 -0.751956 21.1674)
(9.00314 -0.687425 21.2508)
(8.86641 -0.606516 21.3084)
(8.75755 -0.484046 21.3693)
(8.73277 -0.453079 21.3966)
(8.66081 -0.414873 21.4526)
(7.99279 0.0530723 21.9492)
(8.00266 0.148107 21.9403)
(8.0152 0.2597 21.9252)
(8.0397 0.402833 21.9017)
(8.09156 0.592791 21.8667)
(8.20655 0.847891 21.8106)
(8.44028 1.1654 21.7352)
(8.98165 1.49729 21.6267)
(9.72073 1.30406 21.5016)
(10.2336 0.841731 21.4103)
(10.4019 0.169427 21.3662)
(10.1377 -0.417834 21.3533)
(9.80954 -0.605312 21.3967)
(9.52591 -0.663613 21.46)
(9.31102 -0.660586 21.5228)
(9.09696 -0.609019 21.586)
(8.96273 -0.547371 21.6302)
(8.83901 -0.45523 21.6792)
(8.80528 -0.428733 21.7014)
(8.71206 -0.395421 21.748)
(8.06809 0.0494492 22.1579)
(8.08037 0.142621 22.1503)
(8.10223 0.249519 22.1376)
(8.14209 0.383234 22.1178)
(8.21428 0.553486 22.089)
(8.35201 0.769951 22.0437)
(8.59212 1.01106 21.9868)
(9.05482 1.23811 21.9087)
(9.6551 1.09578 21.8232)
(10.0786 0.730157 21.7567)
(10.2427 0.173578 21.7221)
(10.0798 -0.261369 21.708)
(9.81645 -0.454613 21.7373)
(9.55453 -0.544714 21.7749)
(9.35929 -0.564919 21.8259)
(9.15866 -0.537327 21.8752)
(9.03237 -0.494858 21.9096)
(8.90543 -0.422926 21.9481)
(8.86375 -0.400178 21.9667)
(8.75433 -0.371982 22.0046)
(8.13607 0.0456678 22.3459)
(8.15059 0.134727 22.3396)
(8.18018 0.234969 22.3289)
(8.23214 0.357273 22.3123)
(8.31921 0.507312 22.2887)
(8.46893 0.688551 22.2525)
(8.70786 0.874094 22.2083)
(9.10553 1.02929 22.1512)
(9.59362 0.915625 22.0912)
(9.95654 0.609985 22.0436)
(10.1072 0.186501 22.0186)
(9.99855 -0.197127 22.0052)
(9.7925 -0.385769 22.024)
(9.57198 -0.476186 22.051)
(9.39646 -0.50026 22.089)
(9.21246 -0.479511 22.1255)
(9.09033 -0.445758 22.1518)
(8.95984 -0.388571 22.1816)
(8.91093 -0.369022 22.1969)
(8.78851 -0.344716 22.2278)
(8.19805 0.0418156 22.5169)
(8.21453 0.124711 22.5116)
(8.25039 0.216775 22.5027)
(8.3116 0.326537 22.489)
(8.40907 0.456758 22.4698)
(8.56451 0.607021 22.441)
(8.79638 0.74969 22.4068)
(9.14202 0.854541 22.3646)
(9.54802 0.761726 22.3206)
(9.85601 0.515549 22.2858)
(9.99572 0.174677 22.2664)
(9.93203 -0.13715 22.2537)
(9.77314 -0.300412 22.2661)
(9.58332 -0.387148 22.2866)
(9.42285 -0.41782 22.3156)
(9.25162 -0.410727 22.3431)
(9.13363 -0.389565 22.3634)
(9.00195 -0.34797 22.3868)
(8.94802 -0.33274 22.3995)
(8.81664 -0.313092 22.4246)
(8.25502 0.0376721 22.6738)
(8.27325 0.11304 22.6694)
(8.31404 0.195832 22.6621)
(8.38214 0.292458 22.651)
(8.48651 0.403756 22.6353)
(8.64391 0.526691 22.6133)
(8.86542 0.636629 22.5864)
(9.17035 0.706658 22.5549)
(9.5126 0.631353 22.5221)
(9.77958 0.430067 22.4962)
(9.90675 0.160661 22.4806)
(9.87158 -0.092902 22.4735)
(9.74737 -0.240812 22.4796)
(9.58599 -0.326037 22.4939)
(9.44158 -0.359913 22.516)
(9.28484 -0.359313 22.537)
(9.17155 -0.344288 22.5529)
(9.04038 -0.311652 22.5712)
(8.98253 -0.298604 22.5814)
(8.84366 -0.28143 22.6017)
(8.3077 0.0332521 22.8186)
(8.32743 0.100069 22.8151)
(8.37203 0.172792 22.8092)
(8.44514 0.256058 22.8003)
(8.55381 0.349544 22.7877)
(8.7103 0.448383 22.7713)
(8.92164 0.533003 22.7502)
(9.19306 0.58032 22.7263)
(9.48743 0.518574 22.7018)
(9.72151 0.356031 22.6824)
(9.83737 0.142815 22.6699)
(9.82242 -0.0633059 22.669)
(9.72725 -0.190044 22.6704)
(9.59151 -0.264612 22.679)
(9.45936 -0.297054 22.6957)
(9.31385 -0.300829 22.7115)
(9.20403 -0.291648 22.7239)
(9.07324 -0.268136 22.7383)
(9.01254 -0.258364 22.7465)
(8.8682 -0.245147 22.7627)
(8.35668 0.0285659 22.9532)
(8.37764 0.0860859 22.9504)
(8.42519 0.148129 22.9459)
(8.50174 0.218053 22.9388)
(8.61292 0.294776 22.929)
(8.76687 0.373844 22.9162)
(8.96811 0.437289 22.9005)
(9.21338 0.469224 22.8823)
(9.47209 0.418189 22.8644)
(9.67947 0.289913 22.85)
(9.78576 0.123002 22.8405)
(9.78507 -0.0426054 22.8395)
(9.71136 -0.147169 22.84)
(9.59532 -0.212937 22.8462)
(9.47389 -0.244326 22.8588)
(9.33836 -0.251653 22.8707)
(9.23222 -0.246629 22.8803)
(9.10293 -0.22935 22.8913)
(9.04056 -0.221583 22.8977)
(8.89247 -0.21047 22.9104)
(8.40241 0.023657 23.0789)
(8.42433 0.0713187 23.0766)
(8.47398 0.122307 23.0734)
(8.55294 0.179086 23.0679)
(8.66512 0.240157 23.0604)
(8.81658 0.301796 23.0506)
(9.00877 0.348963 23.0392)
(9.23333 0.370689 23.0259)
(9.46463 0.32978 23.0128)
(9.65387 0.228904 23.0022)
(9.75099 0.100844 22.9951)
(9.75936 -0.0287996 22.9943)
(9.70161 -0.112901 22.9944)
(9.60177 -0.166655 22.9989)
(9.4897 -0.194174 23.0066)
(9.36259 -0.201585 23.0163)
(9.2597 -0.198786 23.0237)
(9.13165 -0.18637 23.0321)
(9.06795 -0.180608 23.0371)
(8.91676 -0.17225 23.0467)
(8.4453 0.0185683 23.1967)
(8.46795 0.0559789 23.1951)
(8.51909 0.0958209 23.1927)
(8.59961 0.139598 23.1887)
(8.71234 0.186165 23.183)
(8.86077 0.231822 23.1761)
(9.04662 0.265875 23.1681)
(9.25217 0.280234 23.1588)
(9.47709 0.247262 23.1492)
(9.62766 0.176079 23.1424)
(9.75241 0.0812057 23.1373)
(9.74823 -0.0189217 23.1364)
(9.70061 -0.0834606 23.1363)
(9.61115 -0.125288 23.1396)
(9.5067 -0.148148 23.1435)
(9.38691 -0.155046 23.1512)
(9.28636 -0.154095 23.1567)
(9.15975 -0.145705 23.163)
(9.09538 -0.141627 23.1666)
(8.94252 -0.135291 23.1736)
(8.48568 0.0133469 23.3077)
(8.50885 0.0402532 23.3065)
(8.56099 0.0687759 23.3049)
(8.64254 0.0998659 23.3022)
(8.75554 0.132517 23.2985)
(8.90189 0.164077 23.2939)
(9.0813 0.187319 23.2885)
(9.27765 0.194917 23.2825)
(9.48036 0.174031 23.2763)
(9.6347 0.121059 23.2716)
(9.73091 0.0534409 23.2681)
(9.74744 -0.00910664 23.2677)
(9.709 -0.0563009 23.2675)
(9.6274 -0.0869316 23.2696)
(9.52891 -0.103871 23.2723)
(9.41418 -0.109706 23.2774)
(9.31573 -0.109433 23.2812)
(9.19015 -0.103843 23.2854)
(9.1252 -0.101052 23.288)
(8.9708 -0.0966409 23.2929)
(8.52384 0.00800903 23.4125)
(8.54736 0.0242049 23.4118)
(8.6001 0.0413514 23.4109)
(8.68223 0.0599499 23.4093)
(8.79532 0.0792849 23.4072)
(8.94012 0.0979802 23.4047)
(9.11537 0.111236 23.4017)
(9.30489 0.116261 23.3982)
(9.49689 0.102629 23.3948)
(9.64796 0.0732712 23.3922)
(9.74098 0.0313992 23.39)
(9.75631 -0.0041608 23.3901)
(9.72376 -0.0323619 23.3898)
(9.64767 -0.0508671 23.391)
(9.55327 -0.0614447 23.3928)
(9.44197 -0.0652194 23.3961)
(9.34492 -0.0652965 23.3986)
(9.22013 -0.062237 23.4012)
(9.15492 -0.0607234 23.4028)
(8.99983 -0.0581897 23.4057)
(8.55987 0.00265796 23.511)
(8.58337 0.00804078 23.5101)
(8.63621 0.013752 23.5092)
(8.71847 0.0199386 23.5081)
(8.83153 0.0262932 23.5068)
(8.97533 0.0323299 23.5054)
(9.14908 0.0363738 23.5038)
(9.33288 0.0382053 23.5022)
(9.52783 0.0331106 23.5007)
(9.66329 0.0234737 23.4994)
(9.76846 0.0128464 23.4985)
(9.77294 -0.00395087 23.4978)
(9.74632 -0.0117236 23.4973)
(9.67295 -0.0173239 23.4968)
(9.58022 -0.0207714 23.4963)
(9.4701 -0.0220854 23.4959)
(9.37336 -0.0221527 23.4955)
(9.24853 -0.0210883 23.495)
(9.18298 -0.0205404 23.4946)
(9.027 -0.0195779 23.4941)
(7.08952 0.11174 19.3972)
(7.3069 0.158941 19.3769)
(7.16697 0.0810688 19.3281)
(7.07533 0.242639 19.1673)
(6.48621 0.275214 17.8535)
(5.91912 0.381566 17.1308)
(7.35454 0.0737623 20.1732)
(7.42791 0.129754 20.1568)
(7.35691 0.173901 20.1381)
(7.28738 0.303017 20.0831)
(7.14897 0.442315 19.9861)
(6.88634 0.707289 19.8861)
(6.37229 1.26027 19.5462)
(4.57307 2.08535 16.8783)
(-0.303463 -0.0135207 11.5912)
(0.835442 -0.186133 13.1881)
(2.24254 -0.311833 14.3805)
(3.55453 -0.333295 15.5239)
(3.88915 -0.117144 15.4251)
(4.76892 -0.33787 16.3164)
(7.57136 0.0731162 20.7692)
(7.57712 0.134606 20.759)
(7.53995 0.24203 20.7338)
(7.47544 0.374513 20.6852)
(7.365 0.581055 20.6199)
(7.20667 0.948033 20.4999)
(7.0357 1.71802 20.3001)
(6.86642 2.79859 19.6952)
(1.0511 -0.240019 10.2878)
(4.87007 -0.71767 15.2149)
(5.97796 -0.786768 16.9596)
(6.58729 -0.714465 17.9519)
(7.46802 -0.547445 19.16)
(7.42444 -0.451496 19.0874)
(7.67907 -0.416589 19.478)
(7.70294 0.065528 21.141)
(7.70722 0.146437 21.1304)
(7.68288 0.254964 21.108)
(7.64172 0.402253 21.0685)
(7.58337 0.619748 21.0112)
(7.5173 0.987224 20.9126)
(7.58402 1.64659 20.7458)
(7.67365 2.51531 20.4453)
(9.22713 3.73172 19.3786)
(9.72451 1.3203 17.73)
(7.53842 -0.795975 16.6769)
(8.75078 -1.01263 19.5554)
(8.64706 -0.928228 19.8379)
(8.53378 -0.829899 20.1252)
(8.44348 -0.705041 20.3248)
(8.39253 -0.513721 20.4737)
(8.39309 -0.488375 20.5335)
(8.39377 -0.423573 20.6352)
(7.81344 0.0615057 21.4517)
(7.81917 0.150959 21.442)
(7.80865 0.264232 21.4225)
(7.79249 0.415963 21.3897)
(7.7785 0.634242 21.3396)
(7.80156 0.966514 21.2622)
(7.95131 1.52798 21.1244)
(8.62393 2.11282 20.9266)
(9.58733 2.32257 20.6069)
(10.477 1.34852 20.223)
(10.9834 0.323638 19.9674)
(10.2619 -0.788254 19.9318)
(9.64624 -0.872159 20.4059)
(9.28582 -0.867597 20.5989)
(9.07102 -0.835243 20.7042)
(8.86069 -0.751829 20.8272)
(8.71455 -0.651466 20.9246)
(8.6228 -0.511949 21.0089)
(8.61021 -0.471548 21.043)
(8.57203 -0.421029 21.1091)
(7.90909 0.0572661 21.7186)
(7.91687 0.151701 21.7099)
(7.9189 0.265596 21.6932)
(7.92435 0.415243 21.6652)
(7.94879 0.621707 21.6239)
(8.02481 0.919084 21.5564)
(8.24458 1.33013 21.4644)
(8.85115 1.83981 21.2936)
(9.81366 1.55828 21.119)
(10.4118 1.05957 20.9869)
(10.5647 0.0948067 20.9353)
(10.2491 -0.411469 20.9259)
(9.75136 -0.694285 21.005)
(9.44731 -0.750946 21.1021)
(9.22463 -0.744433 21.1684)
(9.00601 -0.682607 21.2476)
(8.86886 -0.607694 21.3069)
(8.75715 -0.48667 21.37)
(8.73021 -0.453499 21.3978)
(8.65908 -0.412745 21.4527)
(7.99332 0.0537008 21.9524)
(8.00342 0.149164 21.9449)
(8.01625 0.260824 21.9306)
(8.04068 0.403873 21.9069)
(8.09234 0.593926 21.8723)
(8.20801 0.848826 21.8177)
(8.44194 1.16585 21.7443)
(8.981 1.49568 21.6365)
(9.71902 1.30498 21.5088)
(10.2323 0.842442 21.4151)
(10.3966 0.172446 21.3756)
(10.1334 -0.410529 21.3644)
(9.81017 -0.595124 21.412)
(9.52292 -0.658313 21.4758)
(9.3115 -0.657692 21.5302)
(9.09953 -0.607905 21.5854)
(8.96425 -0.548511 21.629)
(8.83871 -0.456527 21.6795)
(8.80339 -0.42877 21.7022)
(8.71108 -0.393812 21.7478)
(8.06854 0.0500312 22.1605)
(8.08101 0.143544 22.154)
(8.10307 0.250471 22.1419)
(8.14288 0.384096 22.1219)
(8.21492 0.554342 22.0933)
(8.35266 0.770481 22.0488)
(8.59264 1.01147 21.9925)
(9.05426 1.23857 21.9132)
(9.65416 1.09649 21.8279)
(10.0778 0.730684 21.7605)
(10.2389 0.174753 21.7288)
(10.0774 -0.252136 21.7165)
(9.81351 -0.449568 21.749)
(9.55148 -0.540776 21.791)
(9.36022 -0.562081 21.8362)
(9.16081 -0.536358 21.876)
(9.0329 -0.495614 21.9086)
(8.90485 -0.423775 21.9481)
(8.86243 -0.400139 21.9671)
(8.75389 -0.370831 22.0045)
(8.13645 0.0461894 22.348)
(8.15112 0.135499 22.3425)
(8.18086 0.23574 22.3323)
(8.23276 0.357955 22.3156)
(8.31974 0.507977 22.292)
(8.46936 0.689008 22.2562)
(8.70788 0.874278 22.2124)
(9.10511 1.02993 22.1541)
(9.5929 0.916321 22.0944)
(9.95599 0.610786 22.0464)
(10.1047 0.187694 22.0234)
(9.99628 -0.192658 22.0113)
(9.79123 -0.382085 22.0307)
(9.57025 -0.471282 22.0603)
(9.39697 -0.496191 22.0959)
(9.21425 -0.478584 22.1262)
(9.09064 -0.446294 22.1511)
(8.95929 -0.389099 22.1816)
(8.91001 -0.369038 22.1972)
(8.7883 -0.343929 22.2276)
(8.19836 0.042216 22.5186)
(8.21498 0.125391 22.514)
(8.25094 0.217397 22.5054)
(8.31209 0.327056 22.4916)
(8.40949 0.457263 22.4723)
(8.5648 0.607251 22.4438)
(8.79629 0.749849 22.4097)
(9.1417 0.855057 22.3666)
(9.54745 0.762377 22.3229)
(9.85561 0.516393 22.2879)
(9.994 0.175375 22.2701)
(9.92972 -0.132973 22.2601)
(9.77256 -0.297415 22.2718)
(9.58209 -0.384264 22.292)
(9.42273 -0.415228 22.3202)
(9.25301 -0.410145 22.3437)
(9.13388 -0.389923 22.363)
(9.00157 -0.348284 22.3868)
(8.94745 -0.332727 22.3996)
(8.81652 -0.312532 22.4245)
(8.25527 0.038007 22.6751)
(8.27361 0.113599 22.6713)
(8.31448 0.196312 22.6642)
(8.38254 0.29284 22.6529)
(8.48681 0.404098 22.6371)
(8.64405 0.526958 22.615)
(8.8654 0.636828 22.5882)
(9.17009 0.707083 22.5562)
(9.51229 0.631818 22.5238)
(9.7792 0.430813 22.4979)
(9.90575 0.161456 22.4835)
(9.86919 -0.0908226 22.4793)
(9.74692 -0.238301 22.4841)
(9.58507 -0.323759 22.4981)
(9.44131 -0.357394 22.5196)
(9.28578 -0.358683 22.5374)
(9.17171 -0.344495 22.5525)
(9.04012 -0.311849 22.5712)
(8.9822 -0.298618 22.5816)
(8.84363 -0.281066 22.6017)
(8.30791 0.0335123 22.8197)
(8.32772 0.100536 22.8166)
(8.37237 0.173159 22.8108)
(8.44542 0.256338 22.8017)
(8.55402 0.349788 22.7889)
(8.71035 0.448801 22.7722)
(8.92146 0.533222 22.7511)
(9.19304 0.580634 22.7272)
(9.48723 0.518965 22.7031)
(9.72127 0.356603 22.6838)
(9.83686 0.143317 22.6721)
(9.82168 -0.0611691 22.672)
(9.72696 -0.188535 22.672)
(9.59076 -0.263278 22.682)
(9.45901 -0.295448 22.6985)
(9.31445 -0.300462 22.7119)
(9.20414 -0.291823 22.7236)
(9.07307 -0.268282 22.7382)
(9.01234 -0.258367 22.7466)
(8.86819 -0.244864 22.7627)
(8.35683 0.0287691 22.954)
(8.37784 0.0864534 22.9515)
(8.42541 0.148423 22.9469)
(8.50194 0.2183 22.9396)
(8.61303 0.295011 22.9296)
(8.76699 0.374129 22.9167)
(8.968 0.437666 22.9011)
(9.21326 0.469447 22.8831)
(9.47197 0.418536 22.8653)
(9.67936 0.290344 22.8511)
(9.78546 0.123515 22.8423)
(9.78455 -0.0417647 22.8418)
(9.71119 -0.146157 22.8414)
(9.59477 -0.211824 22.8486)
(9.47347 -0.24305 22.8608)
(9.33868 -0.251391 22.8708)
(9.23229 -0.246714 22.88)
(9.10278 -0.229434 22.8912)
(9.04041 -0.221595 22.8978)
(8.89248 -0.210299 22.9103)
(8.40253 0.0238173 23.0795)
(8.42448 0.0716096 23.0774)
(8.47414 0.122583 23.074)
(8.55308 0.17931 23.0684)
(8.66519 0.240425 23.0608)
(8.81658 0.301923 23.051)
(9.00871 0.349198 23.0395)
(9.23322 0.370857 23.0264)
(9.46453 0.330054 23.0135)
(9.65379 0.22924 23.0029)
(9.75094 0.1011 22.9965)
(9.75921 -0.0281319 22.9961)
(9.70151 -0.112185 22.9955)
(9.60138 -0.165903 23.0006)
(9.4893 -0.193115 23.0087)
(9.36283 -0.201288 23.0172)
(9.25975 -0.198835 23.0238)
(9.13153 -0.18645 23.0321)
(9.06786 -0.18062 23.0371)
(8.91678 -0.172112 23.0467)
(8.44538 0.0186877 23.1972)
(8.46805 0.0561885 23.1956)
(8.5192 0.0960059 23.1931)
(8.59971 0.139759 23.189)
(8.71239 0.186302 23.1832)
(8.86075 0.23192 23.1764)
(9.04656 0.266022 23.1682)
(9.25208 0.280336 23.1592)
(9.47703 0.247462 23.1496)
(9.62765 0.176281 23.1429)
(9.75249 0.0814394 23.1382)
(9.74817 -0.0185361 23.1377)
(9.70057 -0.0829585 23.137)
(9.61091 -0.124708 23.1408)
(9.50646 -0.147026 23.1457)
(9.3873 -0.154516 23.1526)
(9.28654 -0.1541 23.157)
(9.15966 -0.145784 23.1629)
(9.0953 -0.141652 23.1666)
(8.94254 -0.135217 23.1736)
(8.48573 0.0134269 23.308)
(8.50889 0.0403888 23.3068)
(8.56105 0.0688929 23.3051)
(8.6426 0.0999761 23.3024)
(8.75557 0.132625 23.2985)
(8.90186 0.164168 23.294)
(9.08125 0.187428 23.2886)
(9.27759 0.194985 23.2827)
(9.4803 0.174172 23.2765)
(9.63473 0.121222 23.2718)
(9.73089 0.0535463 23.2687)
(9.74747 -0.00881038 23.2685)
(9.70903 -0.0559291 23.268)
(9.62728 -0.0864866 23.2704)
(9.52874 -0.102993 23.2737)
(9.41445 -0.109179 23.2784)
(9.31592 -0.109434 23.2813)
(9.19014 -0.103902 23.2854)
(9.12518 -0.101066 23.288)
(8.97082 -0.0965772 23.2929)
(8.52385 0.00806142 23.4126)
(8.54737 0.0242895 23.4119)
(8.60014 0.0414236 23.4109)
(8.68227 0.0600185 23.4093)
(8.79534 0.079363 23.4072)
(8.94011 0.0980503 23.4046)
(9.11533 0.111297 23.4016)
(9.30484 0.116295 23.3983)
(9.49685 0.102727 23.3949)
(9.64799 0.0733883 23.3923)
(9.7411 0.0314844 23.3902)
(9.75638 -0.00400107 23.3904)
(9.72379 -0.0321183 23.3901)
(9.64762 -0.0505745 23.3916)
(9.55322 -0.0608969 23.3937)
(9.44224 -0.0648702 23.3967)
(9.3451 -0.0653039 23.3986)
(9.22013 -0.0622839 23.4012)
(9.15489 -0.0607368 23.4028)
(8.99985 -0.0581618 23.4057)
(8.55986 0.00267181 23.5111)
(8.58336 0.00807847 23.5101)
(8.63623 0.0137893 23.5092)
(8.71848 0.019967 23.508)
(8.83153 0.0263172 23.5068)
(8.97531 0.0323513 23.5053)
(9.14903 0.0363962 23.5038)
(9.33282 0.0382152 23.5021)
(9.52776 0.0331804 23.5007)
(9.66344 0.0235097 23.4994)
(9.76844 0.0128609 23.4985)
(9.7729 -0.00386061 23.4978)
(9.74628 -0.0116014 23.4972)
(9.67292 -0.0172265 23.4968)
(9.5802 -0.0205797 23.4963)
(9.47034 -0.0219301 23.4959)
(9.37357 -0.0221302 23.4955)
(9.24857 -0.0210949 23.495)
(9.18294 -0.0205387 23.4946)
(9.027 -0.0195665 23.4941)
(7.08881 0.111314 19.4004)
(7.30229 0.16062 19.3854)
(7.17126 0.0722655 19.3438)
(7.0887 0.235242 19.207)
(6.55315 0.284964 18.0125)
(5.942 0.389165 17.2096)
(7.35533 0.0746034 20.1763)
(7.42818 0.130894 20.1598)
(7.35741 0.173938 20.1421)
(7.28756 0.303149 20.0857)
(7.14935 0.441048 19.989)
(6.88634 0.70626 19.8873)
(6.39467 1.25725 19.5508)
(4.75665 2.09827 17.2085)
(-0.258646 -0.0137244 11.5443)
(0.83958 -0.182373 13.1578)
(2.22669 -0.30683 14.369)
(3.55477 -0.336843 15.5568)
(3.90798 -0.12194 15.4865)
(4.78228 -0.340128 16.338)
(7.57179 0.0739166 20.771)
(7.57751 0.135749 20.7604)
(7.54016 0.242832 20.7355)
(7.47581 0.375416 20.6875)
(7.36562 0.581765 20.6215)
(7.20956 0.950155 20.5073)
(7.03446 1.71379 20.3078)
(6.87507 2.75731 19.6515)
(1.17415 -0.315331 10.8552)
(4.81273 -0.707527 15.1594)
(5.94863 -0.767528 16.8934)
(6.57254 -0.713536 17.9266)
(7.46758 -0.556714 19.1577)
(7.42401 -0.456915 19.0886)
(7.67814 -0.414548 19.4841)
(7.70335 0.0655626 21.1426)
(7.70775 0.146952 21.1317)
(7.68319 0.255217 21.1096)
(7.64201 0.402438 21.0707)
(7.58412 0.619677 21.0136)
(7.51898 0.987123 20.9184)
(7.58603 1.64366 20.752)
(7.68852 2.50417 20.4665)
(9.20373 3.71944 19.3339)
(9.96927 1.38596 17.9613)
(7.31362 -0.827758 16.5308)
(8.75864 -1.02317 19.5702)
(8.63605 -0.929428 19.8459)
(8.52747 -0.823648 20.1128)
(8.44566 -0.705635 20.3116)
(8.39517 -0.520402 20.475)
(8.39217 -0.492226 20.5384)
(8.39055 -0.421664 20.6368)
(7.81376 0.0614718 21.4531)
(7.81961 0.151104 21.4433)
(7.80893 0.264174 21.4241)
(7.79279 0.415809 21.3918)
(7.77909 0.633914 21.342)
(7.80327 0.965192 21.2676)
(7.95461 1.5247 21.1311)
(8.62286 2.10989 20.9336)
(9.58443 2.33166 20.6162)
(10.4724 1.3539 20.2284)
(10.9839 0.308456 19.9661)
(10.2827 -0.771811 19.9957)
(9.63594 -0.875323 20.4228)
(9.28092 -0.868176 20.5994)
(9.06539 -0.827734 20.7094)
(8.86299 -0.749693 20.8255)
(8.72124 -0.655187 20.9196)
(8.62447 -0.516182 21.0095)
(8.60819 -0.473131 21.0457)
(8.56877 -0.419319 21.1104)
(7.90936 0.0571829 21.7197)
(7.91726 0.151781 21.7112)
(7.91914 0.265559 21.6947)
(7.92462 0.415071 21.6671)
(7.94921 0.621336 21.6262)
(8.02607 0.91771 21.561)
(8.24604 1.32748 21.4706)
(8.85121 1.83451 21.2998)
(9.81123 1.5587 21.1257)
(10.4101 1.06338 20.9891)
(10.566 0.0952806 20.9355)
(10.2496 -0.416532 20.9327)
(9.75414 -0.69282 21.0149)
(9.44328 -0.756159 21.1017)
(9.2225 -0.74214 21.1701)
(9.00853 -0.67924 21.2464)
(8.87168 -0.607778 21.3054)
(8.75746 -0.48942 21.3703)
(8.72815 -0.454725 21.399)
(8.65709 -0.411255 21.453)
(7.99355 0.0536072 21.9534)
(8.00376 0.149198 21.9461)
(8.01646 0.26079 21.9319)
(8.0409 0.403707 21.9086)
(8.0926 0.59353 21.8743)
(8.2085 0.847644 21.8214)
(8.44272 1.16371 21.7485)
(8.98153 1.49252 21.6422)
(9.71699 1.30402 21.5135)
(10.2308 0.844935 21.4172)
(10.3972 0.172956 21.3768)
(10.1335 -0.414083 21.3685)
(9.81116 -0.595135 21.4171)
(9.5203 -0.660562 21.4767)
(9.31025 -0.657253 21.5303)
(9.10164 -0.607329 21.5858)
(8.96644 -0.549724 21.6284)
(8.83909 -0.458306 21.6795)
(8.80177 -0.429387 21.7029)
(8.70978 -0.39261 21.7479)
(8.06873 0.0499386 22.1614)
(8.08131 0.14357 22.1551)
(8.10325 0.250452 22.1431)
(8.14304 0.383961 22.1234)
(8.21508 0.554004 22.0951)
(8.35286 0.769691 22.0516)
(8.5931 1.01019 21.9958)
(9.05431 1.23659 21.9176)
(9.6528 1.09578 21.8316)
(10.0771 0.731431 21.7623)
(10.2391 0.174801 21.7305)
(10.078 -0.251848 21.7194)
(9.81368 -0.449169 21.7532)
(9.54978 -0.541758 21.7937)
(9.35893 -0.561807 21.8357)
(9.16277 -0.535033 21.8772)
(9.03414 -0.495921 21.9086)
(8.9047 -0.424924 21.948)
(8.86106 -0.400547 21.9674)
(8.75312 -0.369933 22.0045)
(8.13662 0.0461147 22.3488)
(8.15139 0.135524 22.3435)
(8.18101 0.235734 22.3333)
(8.23288 0.357851 22.3168)
(8.31984 0.507727 22.2935)
(8.46945 0.688478 22.2583)
(8.70809 0.873524 22.215)
(9.10513 1.02885 22.1573)
(9.59219 0.915707 22.0973)
(9.95539 0.611523 22.0483)
(10.1044 0.187941 22.0254)
(9.99602 -0.192638 22.0138)
(9.79216 -0.382392 22.0328)
(9.56948 -0.471859 22.0635)
(9.39606 -0.496076 22.0956)
(9.21543 -0.477468 22.127)
(9.09146 -0.446447 22.1512)
(8.95909 -0.389844 22.1815)
(8.90904 -0.369351 22.1974)
(8.78782 -0.343304 22.2276)
(8.19851 0.0421375 22.5193)
(8.21522 0.12542 22.5148)
(8.25106 0.217415 22.5063)
(8.31218 0.326976 22.4926)
(8.40955 0.457078 22.4735)
(8.56483 0.606835 22.4454)
(8.79636 0.749439 22.4116)
(9.14176 0.854371 22.3689)
(9.54696 0.761933 22.3251)
(9.85517 0.516867 22.2895)
(9.99367 0.175019 22.2718)
(9.92906 -0.13175 22.263)
(9.7727 -0.297738 22.2718)
(9.58218 -0.384108 22.2958)
(9.42205 -0.415495 22.3202)
(9.25373 -0.40955 22.3443)
(9.13446 -0.389993 22.3631)
(9.00149 -0.348728 22.3868)
(8.94683 -0.332934 22.3998)
(8.81623 -0.312082 22.4244)
(8.25539 0.0379432 22.6757)
(8.2738 0.11363 22.672)
(8.31457 0.196328 22.6649)
(8.3826 0.292764 22.6538)
(8.48684 0.403933 22.6381)
(8.64395 0.526623 22.6162)
(8.86553 0.636488 22.5896)
(9.17014 0.706647 22.5578)
(9.51202 0.63149 22.5254)
(9.77884 0.431112 22.4992)
(9.9055 0.161619 22.485)
(9.86912 -0.0898112 22.4816)
(9.74688 -0.238756 22.4842)
(9.58522 -0.32356 22.5007)
(9.4408 -0.357657 22.5195)
(9.2862 -0.358068 22.5379)
(9.17205 -0.344412 22.5526)
(9.04006 -0.31211 22.5712)
(8.98183 -0.298787 22.5817)
(8.84348 -0.280784 22.6016)
(8.308 0.0334556 22.8202)
(8.32786 0.100556 22.8171)
(8.37244 0.173167 22.8114)
(8.44547 0.256259 22.8024)
(8.55405 0.349638 22.7897)
(8.7103 0.448781 22.773)
(8.92139 0.533 22.7522)
(9.19311 0.580355 22.7284)
(9.48708 0.518821 22.7043)
(9.721 0.35687 22.6849)
(9.83674 0.143215 22.6733)
(9.82152 -0.0609936 22.6728)
(9.72712 -0.188048 22.6726)
(9.59077 -0.262955 22.684)
(9.45862 -0.295738 22.6984)
(9.31475 -0.300141 22.7123)
(9.2044 -0.291798 22.7237)
(9.07305 -0.268474 22.7382)
(9.01211 -0.258492 22.7467)
(8.8681 -0.244652 22.7627)
(8.35691 0.0287155 22.9545)
(8.37794 0.08646 22.9519)
(8.42543 0.148434 22.9474)
(8.50198 0.218229 22.9402)
(8.61303 0.294917 22.9303)
(8.76701 0.374018 22.9173)
(8.96797 0.43768 22.9018)
(9.21325 0.469313 22.8841)
(9.47186 0.41849 22.8662)
(9.67925 0.290495 22.8519)
(9.78537 0.123568 22.8432)
(9.78436 -0.0415829 22.8425)
(9.71125 -0.14609 22.8417)
(9.59493 -0.211557 22.8499)
(9.47315 -0.243253 22.8607)
(9.33882 -0.251 22.8712)
(9.23248 -0.246614 22.88)
(9.10276 -0.229523 22.8912)
(9.04024 -0.221685 22.8978)
(8.89241 -0.210174 22.9104)
(8.40258 0.0237655 23.0798)
(8.42455 0.0716067 23.0778)
(8.47415 0.122606 23.0744)
(8.55311 0.179269 23.0689)
(8.6652 0.240413 23.0612)
(8.81652 0.301851 23.0515)
(9.0087 0.349174 23.0399)
(9.23322 0.370761 23.027)
(9.46446 0.330013 23.0141)
(9.65368 0.229374 23.0035)
(9.75091 0.101017 22.9971)
(9.75915 -0.0278931 22.9966)
(9.70156 -0.11197 22.9958)
(9.60149 -0.165715 23.0017)
(9.489 -0.193172 23.0088)
(9.3629 -0.201093 23.0173)
(9.25988 -0.198793 23.0239)
(9.13153 -0.186523 23.0321)
(9.06775 -0.180691 23.0371)
(8.91674 -0.172021 23.0467)
(8.44543 0.018644 23.1974)
(8.46809 0.0561819 23.1959)
(8.51919 0.0960098 23.1933)
(8.59972 0.139741 23.1893)
(8.71238 0.186244 23.1835)
(8.86073 0.231913 23.1767)
(9.04654 0.266014 23.1685)
(9.25206 0.280258 23.1596)
(9.47696 0.247449 23.15)
(9.62764 0.176309 23.1433)
(9.75252 0.08144 23.1387)
(9.7481 -0.0184605 23.1381)
(9.70058 -0.0828536 23.1373)
(9.61104 -0.124607 23.1415)
(9.50628 -0.146919 23.146)
(9.3872 -0.154461 23.1525)
(9.28672 -0.154024 23.1572)
(9.15969 -0.145817 23.1629)
(9.09522 -0.141713 23.1666)
(8.94251 -0.135172 23.1736)
(8.48576 0.0133896 23.3082)
(8.50892 0.0403711 23.3071)
(8.56105 0.0688861 23.3052)
(8.6426 0.0999585 23.3026)
(8.75555 0.132601 23.2987)
(8.90185 0.164155 23.2942)
(9.08123 0.187427 23.2888)
(9.27758 0.194932 23.283)
(9.48027 0.174154 23.2768)
(9.63472 0.121252 23.2721)
(9.73091 0.0534912 23.2691)
(9.74743 -0.00875133 23.2688)
(9.70905 -0.0558495 23.2682)
(9.6274 -0.0864138 23.2709)
(9.52865 -0.10301 23.274)
(9.41436 -0.109129 23.2783)
(9.31605 -0.109355 23.2815)
(9.19019 -0.103938 23.2854)
(9.12515 -0.101108 23.288)
(8.97081 -0.0965415 23.2929)
(8.52386 0.00804007 23.4128)
(8.54738 0.0242704 23.4121)
(8.60013 0.0414099 23.4111)
(8.68228 0.0600031 23.4095)
(8.79533 0.0793617 23.4073)
(8.9401 0.0980453 23.4047)
(9.11531 0.111291 23.4018)
(9.30482 0.116244 23.3985)
(9.49682 0.102713 23.3951)
(9.64798 0.0733946 23.3925)
(9.74117 0.0314299 23.3905)
(9.75638 -0.00399132 23.3906)
(9.72379 -0.0320719 23.3902)
(9.64773 -0.0505214 23.392)
(9.55318 -0.0608944 23.3939)
(9.44218 -0.0648465 23.3967)
(9.34521 -0.0652622 23.3988)
(9.22018 -0.0623159 23.4012)
(9.15487 -0.0607721 23.4028)
(8.99984 -0.0581503 23.4057)
(8.55987 0.00266542 23.5113)
(8.58335 0.00807218 23.5103)
(8.63622 0.0137818 23.5093)
(8.71848 0.0199589 23.5082)
(8.83151 0.0263084 23.5069)
(8.97529 0.0323424 23.5055)
(9.149 0.0363863 23.5039)
(9.3328 0.038186 23.5024)
(9.52767 0.0331938 23.5009)
(9.66359 0.0235006 23.4997)
(9.76844 0.0128237 23.4987)
(9.77285 -0.00384747 23.4981)
(9.74626 -0.011576 23.4974)
(9.67298 -0.0172447 23.497)
(9.58022 -0.0206306 23.4966)
(9.47034 -0.0219421 23.4961)
(9.37368 -0.0221031 23.4955)
(9.24865 -0.0210943 23.4951)
(9.18292 -0.0205439 23.4946)
(9.02698 -0.0195563 23.4941)
(7.0891 0.110872 19.4001)
(7.30611 0.157839 19.3881)
(7.17824 0.0637862 19.3516)
(7.09374 0.238316 19.2186)
(6.60439 0.287225 18.1443)
(5.94857 0.387051 17.2126)
(7.3555 0.0742765 20.177)
(7.42929 0.130677 20.1605)
(7.35664 0.172679 20.1427)
(7.28854 0.303445 20.0863)
(7.14958 0.439521 19.9894)
(6.88719 0.706142 19.8834)
(6.40901 1.25731 19.5583)
(4.81093 2.09798 17.314)
(-0.219176 -0.0184243 11.4757)
(0.84785 -0.177251 13.1186)
(2.21023 -0.301167 14.3484)
(3.54913 -0.338877 15.5768)
(3.92436 -0.126832 15.5506)
(4.80091 -0.344259 16.3751)
(7.57189 0.0737997 20.771)
(7.57765 0.135667 20.7601)
(7.54019 0.242731 20.7351)
(7.47594 0.375242 20.6873)
(7.36585 0.581438 20.6207)
(7.21159 0.950151 20.5073)
(7.03529 1.71096 20.3122)
(6.85415 2.74932 19.5917)
(1.02897 -0.275039 10.8666)
(4.78474 -0.729422 15.24)
(5.91049 -0.746462 16.8138)
(6.55696 -0.707395 17.8928)
(7.46839 -0.565135 19.1557)
(7.42394 -0.463296 19.0891)
(7.67792 -0.414257 19.4916)
(7.70341 0.0653885 21.1425)
(7.70791 0.146954 21.1313)
(7.68326 0.255133 21.1091)
(7.6421 0.402352 21.0703)
(7.58434 0.619469 21.013)
(7.5202 0.987028 20.9178)
(7.58582 1.6424 20.75)
(7.69777 2.50304 20.464)
(9.23236 3.70209 19.4112)
(9.87439 1.39257 17.763)
(7.42272 -0.860817 16.6483)
(8.76999 -1.03598 19.5803)
(8.62907 -0.929342 19.8594)
(8.52253 -0.818756 20.1076)
(8.44594 -0.704267 20.2988)
(8.39795 -0.526673 20.4725)
(8.39254 -0.497406 20.5431)
(8.38779 -0.421466 20.6401)
(7.81379 0.0614035 21.453)
(7.81971 0.151119 21.443)
(7.80898 0.264132 21.4236)
(7.79289 0.415744 21.3914)
(7.77929 0.633787 21.3414)
(7.80407 0.964979 21.2669)
(7.95616 1.52236 21.1295)
(8.62519 2.10679 20.9331)
(9.58006 2.325 20.6203)
(10.4588 1.35483 20.2349)
(10.9889 0.315152 19.9605)
(10.2964 -0.767131 20.003)
(9.63476 -0.875558 20.4231)
(9.278 -0.872256 20.5968)
(9.05734 -0.821032 20.7131)
(8.86424 -0.745826 20.8249)
(8.72677 -0.656882 20.9155)
(8.6274 -0.521045 21.0089)
(8.60736 -0.475972 21.048)
(8.56552 -0.418661 21.1123)
(7.90938 0.0571108 21.7196)
(7.91734 0.1518 21.711)
(7.91919 0.265567 21.6944)