# vtk DataFile Version 2.0
sampleSurface
ASCII
DATASET POLYDATA
POINTS 3098 float
0.746192 0 -5.00894e-05 -6.50534 1.11022e-16 -4.7391e-05 0.739507 0 7.49995 7.99812 0
1.94289e-05 -6.5124 -1.11022e-16 7.49992 7.99235 -1.11022e-16 7.50019 -13.7546 0 -1.50031e-05
0.734852 -1.11022e-16 14.9998 15.2496 -1.11022e-16 6.60617e-05 -13.7602 0 7.49982 -6.51784
-1.11022e-16 14.9998 15.2414 -1.11022e-16 7.50009 7.98685 0 14.9998 -13.7648 0
14.9999 -20.9938 0 4.36099e-06 15.2348 -1.11022e-16 14.9998 -20.9936 2.22045e-16 7.49977
22.5022 0 1.49541e-05 0.735071 0 22.4998 -6.51815 -1.11022e-16 22.4999 22.4915
0 7.49989 7.98745 -1.11022e-16 22.4998 -20.9933 -1.11022e-16 14.9999 -13.7652 1.11022e-16
22.4999 22.4829 -1.11022e-16 14.9998 15.2356 0 22.4998 -28.2515 0 2.62893e-05
-28.2534 0 7.50012 29.7556 -1.11022e-16 -4.54549e-05 0.735819 1.11022e-16 29.9999 29.7426
0 7.4992 -6.51767 0 29.9999 -20.9933 -1.11022e-16 22.5 7.98856 0
29.9999 22.4839 1.11022e-16 22.4999 -28.255 0 15 -13.7649 0 30
29.7256 0 14.9997 15.237 0 29.9999 -35.5072 -1.11022e-16 5.90779e-05 -28.2551
0 22.5 -35.5123 1.11022e-16 7.50007 -20.993 1.11022e-16 30 36.9932 0
-7.53554e-05 29.7252 1.11022e-16 22.4999 22.4857 -1.11022e-16 29.9999 0.736256 -1.11022e-16 37.5
37.0663 -1.11022e-16 7.5 -6.5174 0 37.5 7.98913 1.11022e-16 37.5 -35.5169
-2.22045e-16 15 36.9578 0 14.9999 -13.7648 0 37.5 15.2378 0
37.5 -28.255 0 30 -35.5174 0 22.5 29.7273 -1.11022e-16 30
-42.7594 0 0.000106246 -20.9929 1.11022e-16 37.5 36.9398 -3.33067e-16 22.4999 -42.765
0 7.50013 22.4866 -1.11022e-16 37.5 44.3067 1.11022e-16 -0.000173064 44.3156 -5.55112e-17
3.74923 44.3638 -1.11022e-16 7.50044 0.736588 -1.11022e-16 45 -42.7692 2.22045e-16 15.0001
-6.51713 0 45 7.98959 0 45 -35.5174 0 30 44.2537
1.11022e-16 14.9995 -28.2549 0 37.5 -13.7646 -2.22045e-16 45 15.2384 1.11022e-16
45 36.9405 0 30 29.7284 0 37.5 47.8983 5.55112e-17 -0.000231375
47.9106 0 3.74943 -42.7696 1.11022e-16 22.5 48.0131 0 7.50081 44.229
-2.22045e-16 22.4999 -20.9927 -1.11022e-16 45 -50 -1.11022e-16 0.000116555 22.4873 -1.11022e-16
45 -50 -1.11022e-16 7.50012 51.4805 0 -0.000354952 -35.5173 1.11022e-16 37.5
51.6484 5.55112e-17 3.75115 -50 -2.22045e-16 15.0001 51.6711 0 7.50084 -42.7696
0 30 0.736735 -1.11022e-16 52.5 36.9419 0 37.5 51.4953 -1.11022e-16
11.2492 -6.51706 0 52.5 7.98975 0 52.5 -28.2549 0 45
44.2289 -1.11022e-16 30 51.37 -5.55112e-17 14.9994 29.729 -1.11022e-16 45 -13.7646
0 52.5 51.3052 -2.1684e-19 18.7496 51.3048 -2.60209e-18 18.8318 15.2386 -2.22045e-16
52.5 51.3708 -2.38524e-18 18.7496 -50 1.11022e-16 22.5 54.9985 0 -0.00260162
55.0346 0 1.87535 55.1369 0 3.75138 55.3085 5.55112e-17 7.50038 51.2883
-5.55112e-17 22.4998 55.0461 -5.55112e-17 11.249 -20.9927 0 52.5 56.7456 0
0.0299735 56.7783 -2.77556e-17 1.87544 -42.7696 0 37.5 54.8698 0 14.9993
56.8619 2.77556e-17 3.75216 22.4876 1.11022e-16 52.5 -35.5173 -1.11022e-16 45 54.8229
0 17.1162 51.2808 6.93889e-18 26.2499 55.7413 -6.93889e-18 14.9994 54.8037 0
18.7496 44.2298 -1.11022e-16 37.5 36.9422 -2.22045e-16 45 -50 0 30
58.4645 0 -0.244693 58.5154 0 1.88535 58.9168 0 -0.257294 58.9375
1.38778e-17 1.84572 58.8346 1.38778e-17 4.04008 59.1468 -3.46945e-18 1.82581 59.2027 0
-0.270676 59.0815 0 3.9148 54.7907 0 22.4998 59.2532 0 -0.267831
59.2573 0 1.824 58.2324 -1.38778e-17 11.2624 59.254 0 3.02719 58.004
1.38778e-17 12.6256 59.2576 -3.46945e-18 3.82483 51.283 -6.245e-17 30 57.6498 2.77556e-17
14.9995 -28.2548 1.11022e-16 52.5 59.2774 -2.77556e-17 7.62697 58.8187 2.77556e-17 11.263
58.0011 -1.38778e-17 14.9995 0.736891 0 60 58.3071 0 14.9994 29.7293
1.11022e-16 52.5 59.2786 -2.77556e-17 11.2636 -6.5169 0 60 57.4289 2.77556e-17
18.7498 7.98997 -1.11022e-16 60 58.8533 5.55112e-17 14.9994 54.7868 1.249e-16 26.2499
58.0003 -1.38778e-17 18.7498 58.1668 0 18.7498 59.2769 -2.77556e-17 14.9994 51.2799
6.93889e-18 33.75 -13.7644 0 60 57.3667 0 22.4999 58.7945 0
18.7497 15.2389 1.11022e-16 60 -42.7696 -1.11022e-16 45 59.2786 -2.77556e-17 18.7497
57.9997 2.77556e-17 22.4999 58.1285 -6.245e-17 22.4999 54.7871 0 30 -50
0 37.5 58.7775 2.77556e-17 22.4999 57.3544 0 26.25 44.2301 -1.11022e-16
45 -35.5173 -2.22045e-16 52.5 59.2769 0 22.4998 51.283 -6.93889e-18 37.5
-20.9926 1.11022e-16 60 58.0001 0 26.25 58.1216 0 26.25 22.4878
1.11022e-16 60 36.9426 0 52.5 54.7861 -8.32667e-17 33.75 58.7756 0
26.25 57.3526 -1.66533e-16 30 59.2786 0 26.25 57.9997 -2.08167e-17 30
58.1203 2.08167e-17 30 51.28 0 41.25 58.7742 -5.55112e-17 30 -28.2547
0 60 54.7871 0 37.5 59.2769 0 30 57.3525 0
33.75 29.7295 0 60 58.0002 0 33.75 58.1205 -6.93889e-18 33.75
-50 0 45 0.736925 0 67.5 -42.7695 0 52.5 58.7752
-2.77556e-17 33.75 -6.5169 3.33067e-16 67.5 7.98998 -1.11022e-16 67.5 59.2786 2.77556e-17
33.75 51.2831 -3.46945e-17 45 57.3524 5.55112e-17 37.5 54.7862 1.38778e-17 41.25
44.2303 1.11022e-16 52.5 -13.7644 0 67.5 57.9998 0 37.5 58.1202
4.16334e-17 37.5 15.2389 -1.11022e-16 67.5 58.7741 0 37.5 -35.5171 1.11022e-16
60 59.2769 0 37.5 36.9425 0 60 57.3524 -5.55112e-17 41.25
-20.9926 -1.11022e-16 67.5 51.2801 -6.93889e-18 48.75 54.787 0 45 22.4878
2.22045e-16 67.5 58.0002 6.93889e-18 41.25 58.1204 0 41.25 58.7752 -2.77556e-17
41.25 59.2786 -2.77556e-17 41.25 -50 0 52.5 57.3524 0 45
-28.2547 1.11022e-16 67.5 54.7862 -2.77556e-17 48.75 51.2831 -6.245e-17 52.5 57.9998
6.93889e-18 45 58.1202 -6.93889e-18 45 -42.7695 -1.11022e-16 60 29.7296 0
67.5 58.7741 2.77556e-17 45 59.2769 0 45 44.2304 -2.22045e-16 60
0.737014 0 75 57.3524 0 48.75 -6.51679 -1.11022e-16 75 7.99012
-2.22045e-16 75 58.0002 -6.93889e-18 48.75 58.1204 0 48.75 54.787 -1.38778e-17
52.5 51.2801 0 56.25 -13.7644 0 75 -35.5171 -1.11022e-16 67.5
58.7752 2.77556e-17 48.75 15.239 0 75 59.2786 2.77556e-17 48.75 36.9428
2.22045e-16 67.5 57.3524 0 52.5 -20.9926 1.11022e-16 75 -50 -1.11022e-16
60 57.9998 6.93889e-18 52.5 22.4879 0 75 58.1202 -6.93889e-18 52.5
54.7862 -1.38778e-17 56.25 58.7741 2.77556e-17 52.5 51.2831 -1.38778e-17 60 59.2769
-2.77556e-17 52.5 -42.7695 0 67.5 -28.2547 1.11022e-16 75 57.3524 0
56.25 29.7296 0 75 44.2304 -1.11022e-16 67.5 58.0002 2.08167e-17 56.25
58.1204 6.93889e-18 56.25 54.7871 0 60 58.7752 2.77556e-17 56.25 59.2786
2.77556e-17 56.25 51.2801 0 63.75 0.737004 -1.11022e-16 82.5 -6.51683 0
82.5 7.99007 1.11022e-16 82.5 -35.5171 0 75 57.3524 0 60
57.9998 1.38778e-17 60 58.1202 4.85723e-17 60 36.9426 1.11022e-16 75 -13.7644
1.11022e-16 82.5 15.239 -2.22045e-16 82.5 58.7741 2.77556e-17 60 -50 2.22045e-16
67.5 54.7862 -2.77556e-17 63.75 59.2769 -2.77556e-17 60 51.2831 -6.245e-17 67.5
-20.9926 -1.11022e-16 82.5 22.4879 1.11022e-16 82.5 57.3524 0 63.75 58.0002
6.93889e-18 63.75 58.1204 6.93889e-18 63.75 -42.7695 0 75 58.7752 -2.77556e-17
63.75 54.787 0 67.5 59.2786 2.77556e-17 63.75 44.2304 0 75
-28.2547 -1.11022e-16 82.5 29.7297 0 82.5 51.2801 0 71.25 57.3524
0 67.5 57.9998 1.38778e-17 67.5 58.1202 4.85723e-17 67.5 58.7741 2.77556e-17
67.5 -35.5171 0 82.5 59.2769 -2.77556e-17 67.5 54.7862 -6.93889e-17 71.25
0.737067 -1.11022e-16 90 -50 -1.11022e-16 75 -6.51675 -1.11022e-16 90 7.99018
1.11022e-16 90 36.9429 2.22045e-16 82.5 51.2831 1.17961e-16 75 -13.7643 0
90 15.239 -1.11022e-16 90 57.3524 0 71.25 58.0002 6.93889e-18 71.25
58.1204 6.93889e-18 71.25 58.7752 -2.77556e-17 71.25 -20.9925 1.11022e-16 90 59.2786
2.77556e-17 71.25 22.488 1.11022e-16 90 54.7871 0 75 -42.7695 0
82.5 44.2305 0 82.5 51.2801 -6.93889e-18 78.75 -28.2547 -2.22045e-16 90
57.3524 0 75 29.7297 -1.11022e-16 90 57.9998 1.38778e-17 75 58.1202
4.85723e-17 75 58.7741 2.77556e-17 75 59.2769 -2.77556e-17 75 54.7862 0
78.75 -50 0 82.5 -35.5171 1.11022e-16 90 51.2831 -1.80411e-16 82.5
36.9427 1.11022e-16 90 57.3524 0 78.75 0.737038 0 97.5 -6.5168
0 97.5 58.0002 6.93889e-18 78.75 7.9901 -1.11022e-16 97.5 58.1204 6.93889e-18
78.75 58.7752 -2.77556e-17 78.75 -13.7644 2.22045e-16 97.5 59.2786 2.77556e-17 78.75
15.239 0 97.5 54.787 -1.38778e-17 82.5 -42.7695 -1.11022e-16 90 -20.9926
-1.11022e-16 97.5 22.4879 0 97.5 44.2304 1.11022e-16 90 51.2801 0
86.25 57.3524 0 82.5 57.9998 -6.93889e-18 82.5 58.1202 4.85723e-17 82.5
58.7741 2.77556e-17 82.5 -28.2547 0 97.5 59.2769 -2.77556e-17 82.5 29.7297
1.11022e-16 97.5 54.7862 1.38778e-17 86.25 -50 0 90 57.3524 0
86.25 51.2831 -6.93889e-18 90 -35.5171 -1.11022e-16 97.5 58.0002 1.38778e-17 86.25
58.1204 6.93889e-18 86.25 36.9429 2.22045e-16 97.5 58.7752 -2.77556e-17 86.25 59.2786
2.77556e-17 86.25 0.73709 -1.11022e-16 105 -6.51673 0 105 7.9902 -1.11022e-16
105 54.7871 0 90 -13.7643 0 105 15.239 1.11022e-16 105
-42.7695 -1.11022e-16 97.5 57.3524 0 90 51.2801 0 93.75 44.2305
1.11022e-16 97.5 57.9998 1.38778e-17 90 -20.9925 2.22045e-16 105 58.1202 4.85723e-17
90 22.4881 0 105 58.7741 2.77556e-17 90 59.2769 -2.77556e-17 90
54.7862 0 93.75 -28.2547 0 105 29.7297 0 105 -50
-1.11022e-16 97.5 57.3524 0 93.75 51.2831 -1.04083e-16 97.5 58.0002 6.93889e-18
93.75 58.1204 6.93889e-18 93.75 58.7752 -2.77556e-17 93.75 -35.5171 0 105
59.2786 2.77556e-17 93.75 36.9427 -1.11022e-16 105 54.787 1.38778e-17 97.5 0.737054
-1.11022e-16 112.5 -6.51679 2.22045e-16 112.5 7.99012 -1.11022e-16 112.5 57.3524 0
97.5 -13.7644 0 112.5 -42.7695 0 105 57.9998 1.38778e-17 97.5
51.2801 -6.93889e-18 101.25 58.1202 4.85723e-17 97.5 15.239 -1.11022e-16 112.5 58.7741
2.77556e-17 97.5 44.2305 1.11022e-16 105 59.2769 -2.77556e-17 97.5 -20.9926 1.11022e-16
112.5 22.4879 -1.11022e-16 112.5 54.7862 0 101.25 -28.2547 0 112.5
-50 2.22045e-16 105 29.7297 0 112.5 57.3524 0 101.25 58.0002
1.38778e-17 101.25 58.1204 6.93889e-18 101.25 51.2831 2.08167e-17 105 58.7752 -2.77556e-17
101.25 59.2786 2.77556e-17 101.25 -35.5171 -2.22045e-16 112.5 36.9429 1.11022e-16 112.5
54.7871 0 105 57.3524 0 105 57.9998 1.38778e-17 105 0.737101
-1.11022e-16 120 58.1202 4.85723e-17 105 -6.51672 0 120 51.2801 6.93889e-18
108.75 7.99022 -1.11022e-16 120 58.7741 2.77556e-17 105 -42.7695 0 112.5
59.2769 -2.77556e-17 105 -13.7643 -1.11022e-16 120 44.2305 0 112.5 15.239
-1.11022e-16 120 54.7862 -2.77556e-17 108.75 -20.9925 0 120 22.4881 0
120 57.3524 0 108.75 -50 0 112.5 58.0002 6.93889e-18 108.75
[...]
POINT_DATA 3098
FIELD attributes 2
p 1 3098 float
0.0560241 0.042955 0.473203 0.0671709 0.473208 0.443955 0.0134133 0.269403 0.0932149 0.490604 0.265857
0.466154 0.290165 0.282549 -0.0258369 0.301908 0.501533 0.141845 0.0807625 0.0709261 0.52321
0.0858469 0.293282 0.05811 0.317274 0.0919057 -0.0481293 0.491265 0.282549 0.0408524 0.627921
0.0391498 0.0552842 0.0374467 0.0866195 0.296399 0.0333295 0.415375 0.0355083 -0.0476384 0.0610686
0.452732 0.033393 0.40605 0.0294986 0.0297302 0.0302553 0.654835 0.0319729 0.0256998 0.283009
0.594066 0.0318902 0.0202815 0.0378794 0.0708346 -0.00589406 -0.00863918 0.0344582 -0.0207006 0.370524
0.0136768 0.851759 0.220084 0.568826 0.0216841 0.258107 0.0238399 0.0168689 0.0463813 0.686926
0.0385384 0.0245968 0.0105296 -0.0379333 -0.00144466 1.17419 0.19581 0.0881205 0.377856 -0.0737053
0.0271102 0.0212323 0.0016169 0.3207 1.27745 0.0455822 0.0393814 0.246596 0.857421 0.0591256
0.0214556 -0.0149319 1.77833 0.0242682 0.016521 0.0309395 -0.0638783 0.694427 -0.0114941 0.0256242
-0.131768 -0.1339 0.011083 -0.130683 0.0995811 1.02167 -0.185884 -0.436235 0.965137 -0.227212
2.09832 0.0277254 1.03924 -0.285505 0.0550599 0.787991 -1.03081 0.00298267 0.0380773 0.300217
-0.175302 0.812061 -0.0727524 -0.0257233 -0.0239812 0.0662124 1.71255 -0.386879 2.07502 -0.128762
-1.41638 -0.143621 2.1879 -1.47426 -0.232563 2.19351 -0.167309 2.35516 -1.03516 1.84502
-1.56026 -0.107368 0.86166 0.0311065 1.35359 2.02838 0.745352 0.0244082 0.623768 -0.00816689
2.1277 0.0274602 -0.0113424 0.0201212 0.81069 -0.163731 0.00148843 0.00265973 0.799212 -0.0582322
0.0295586 -0.20193 -0.00694123 0.0163113 0.0474887 -0.0193991 -0.190544 -0.186048 -0.106338 0.0594736
-0.180542 -0.146561 -0.0333141 0.0375444 -0.177183 -0.050027 0.0316603 -0.140384 -0.137166 0.0108835
-0.0190771 -0.0617343 -0.12825 -0.101967 -0.121929 -0.102515 -0.10087 -0.0553062 -0.0953492 0.0347698
-0.0487742 -0.090431 -0.0649544 0.00469379 -0.0726954 -0.0733031 0.0515449 0.0274807 0.0460249 -0.0756334
0.0304268 0.0240629 -0.0750515 -0.0537751 -0.0488505 -0.0510766 -0.0252917 0.0328972 -0.0561221 -0.0573045
0.0219081 -0.0625548 0.0405566 -0.0640357 -0.00101248 -0.0481639 0.0351035 -0.0484905 -0.0483332 0.0191425
-0.0540296 -0.0551749 -0.0613379 -0.0637354 0.0497927 -0.0426665 0.038218 -0.0401154 -0.0335813 -0.0473088
-0.0484388 0.0480654 0.0176362 -0.0551316 -0.0581904 -0.00244546 0.0300404 -0.033892 0.0328416 0.027284
-0.0377241 -0.0387641 -0.0248199 -0.0176545 0.0354399 0.0436879 -0.0452577 0.0262784 -0.0485999 0.0177323
-0.0175047 0.0376376 0.0514347 -0.0202466 0.0252362 -0.021104 -0.00638425 -0.0266887 -0.000266697 -0.0296328
0.0505971 0.0407714 0.0012936 0.0265479 0.0209782 -0.00101521 -0.0017952 0.0113583 -0.00645865 -0.00894268
0.0150331 0.0326334 0.0351929 0.0304089 0.0461024 0.0189786 0.0166915 0.0158917 0.0306033 0.0377525
0.030187 0.0117032 0.0537005 0.0271741 0.0092658 0.0277605 0.0398561 0.0302547 0.0341847 0.0315793
0.0307222 0.0526373 0.0270471 0.0401722 0.0248291 0.0369883 0.0429336 0.0328958 0.0376632 0.0470157
0.0444046 0.0435134 0.040306 0.0481765 0.0382165 0.0500639 0.0358674 0.0555743 0.038319 0.0338951
0.0391117 0.0451372 0.040746 0.0341391 0.056176 0.0530641 0.0521019 0.049301 0.0426579 0.0474433
0.0348405 0.0575562 0.0544549 0.0472178 0.0506878 0.0455878 0.0633472 0.0381102 0.0599888 0.058953
0.0563322 0.0544874 0.0630056 0.0572474 0.0505871 0.0553359 0.0452075 0.068165 0.0395822 0.0418598
0.0644133 0.0378302 0.0633355 0.0610532 0.0441551 0.0594191 0.0382976 0.0675245 0.0565122 0.0458738
0.039263 0.054002 0.0585495 0.0724465 0.068534 0.0674027 0.0652318 0.0486204 0.0636106 0.0425997
0.0708138 0.059143 0.0753485 0.0617043 0.0533405 0.0711705 0.0700273 0.0498424 0.0681751 0.0667721
0.0432003 0.0453566 0.0416577 0.0736461 0.0475829 0.0423513 0.0589559 0.0779471 0.0638809 0.0590234
0.0736479 0.0491499 0.0724614 0.0434982 0.0706602 0.0692416 0.0758637 0.0517326 0.0468589 0.0614754
0.0797802 0.0665056 0.0752598 0.0740708 0.0725159 0.0562256 0.0712609 0.0538347 0.0782323 0.0466524
0.0486312 0.0453501 0.0820785 0.0508391 0.0616028 0.0775235 0.0685161 0.0763017 0.0461526 0.074746
0.06309 0.0734536 0.0523231 0.0473887 0.0804848 0.0547745 0.0640418 0.0509436 0.0841046 0.0794358
0.0782254 0.0710722 0.0768817 0.0757379 0.0591065 0.0577054 0.0828226 0.0864314 0.0817917 0.0500121
0.0805521 0.051847 0.0730452 0.0487616 0.0791451 0.0643198 0.0779209 0.0539419 0.0667868 0.049548
0.084964 0.0553064 0.0508371 0.0883392 0.0667205 0.0836162 0.0576545 0.0823955 0.081176 0.0545685
0.0755956 0.0800871 0.0873299 0.0618512 0.0613841 0.0907253 0.086075 0.0848371 0.0835667 0.0774185
0.0824132 0.0669386 0.0530603 0.0547551 0.0518466 0.07044 0.0566967 0.0526634 0.0894311 0.058005
0.0540258 0.0928072 0.0881922 0.0869912 0.0693175 0.0859182 0.0849031 0.0793855 0.0603295 0.0577961
0.0910842 0.0644269 0.0646701 0.0945085 0.0899746 0.0887648 0.0876448 0.0865659 0.0807229 0.0694223
0.0738149 0.055819 0.0573966 0.0546955 0.092511 0.0593162 0.0555687 0.0958584 0.0606223 0.0913281
0.0901549 0.0569813 0.0717886 0.089218 0.0882674 0.0825238 0.0628744 0.06077 0.0941571 0.0668311
0.0977184 0.0676004 0.0933352 0.0921538 0.0911324 0.0900985 0.0838883 0.0717249 0.0767471 0.0957175
0.0584511 0.0600059 0.0573297 0.0618543 0.0992785 0.0582589 0.0949679 0.0938422 0.0930576 0.0740845
0.0921929 0.0630091 0.059725 0.0856945 0.0651194 0.0635917 0.0973596 0.101098 0.0690175 0.0969265
0.0957931 0.0705588 0.0949057 0.0939413 -0.0727974 -0.144384 0.0870235 -0.039351 0.029158 -0.0651954
0.0164907 -0.125221 0.0738853 -0.0390119 0.0275724 0.000897421 0.0989086 0.0796871 0.0194793 -0.0311899
-0.0553962 -0.0991788 -0.0549502 -0.0978523 -0.038773 0.00208422 -0.0387574 0.060883 0.0248921 0.0248053
0.102606 0.0623293 -0.0561878 0.05983 -0.0255444 0.0230916 0.0984691 0.0232181 0.0973744 0.0640741
0.0966664 0.0608077 0.00288592 0.00290918 -0.0720829 0.0958277 -0.0489017 0.0762484 -0.0432444 -0.0689077
-0.0186305 -0.0184617 -0.0301844 0.088852 0.065132 -0.0648513 0.0178291 -0.0820517 0.0623148 -0.0395789
-0.0393499 0.0213408 0.00659908 -0.0750089 -0.0361677 -0.0494399 -0.0890291 -0.0555732 -0.0553445 0.0671912
-0.0252777 0.10053 0.0104806 -0.00962851 0.066188 0.0177987 -0.0819694 -0.06602 -0.0657988 -0.0918529
-0.0270172 0.104354 0.00829218 0.100322 0.0992176 -0.00454401 0.0983885 0.0710664 -0.0412053 -0.0849449
-0.0729882 -0.0727682 0.0974518 -0.0286441 -0.0359936 0.0731843 -0.0185291 -0.0913282 -0.0197403 0.00859544
-0.0509195 0.0901508 0.0168585 -0.0761789 -0.0759647 -0.0847375 -0.0325142 0.0108389 -0.0892617 -0.0574407
0.000459677 0.0759151 -0.0418189 0.102083 -0.0764048 -0.0762018 0.0824168 -0.0829256 -0.0124211 -0.060718
-0.0202184 -0.0213096 -0.0867156 -0.0110715 -0.0478193 0.10598 0.00666969 -0.023767 0.102043 -0.074932
0.10099 -0.0747375 0.0156434 0.0631271 0.100357 -0.080561 0.0645275 0.0621327 -0.0615506 0.0995589
0.0134673 -0.0512888 -0.0321646 0.0662585 0.078283 -0.0841202 0.0631379 0.00591455 0.0918012 -0.07281
-0.0726215 -0.0379116 0.0672552 -0.0781001 -0.0606801 -0.00435773 -0.0523619 0.0646891 -0.0817751 -0.0139394
0.103527 -0.0411878 -0.0705288 -0.0703448 0.0692498 -0.052059 -0.0590903 -0.0159099 -0.0758485 0.0686267
-0.0144596 -0.0214321 -0.00857187 0.107531 0.00119384 -0.0426424 0.10367 0.102602 0.00802128 -0.0795831
0.101862 -0.0267276 -0.0684027 -0.068222 -0.0507067 0.100967 0.0085064 -0.0572384 0.073059 -0.0737177
0.0756821 0.00455194 -0.0425764 0.093006 -0.0299492 -0.00226841 -0.0492796 -0.0774062 -0.0663528 -0.0661741
-0.0554425 -0.0417207 -0.00925561 -0.0316589 0.0778547 0.104955 -0.0715859 0.0849808 -0.0152192 -0.0475997
-0.0109162 -0.00944195 -0.00578661 0.108952 -0.0755324 -0.0536503 -0.064276 -0.0640986 -0.032012 -0.0404847
6.07531e-05 0.105099 0.104061 0.00497969 -0.0197864 0.103458 0.102665 -0.0697341 0.00651269 0.0652033
0.0665508 0.0642442 0.0802109 -0.0461087 -0.0315736 0.00480659 -0.0229071 0.0682569 -0.0391649 -0.0517734
0.0946175 0.0652658 -0.0624497 -0.0622729 -0.0742183 0.000296738 0.0692002 -0.0248279 -0.0684224 0.0668703
-0.030689 -0.00473975 -0.0442649 0.106528 -0.0377712 -0.0500952 -0.00941805 -0.0611409 -0.0609643 0.0711295
-0.0731632 -0.0256652 -0.0142602 -0.0133657 0.110746 0.0708795 -0.0111938 0.107008 -0.0296536 0.105954
-0.00773311 0.105221 -0.0133689 -0.067371 -0.00441232 0.10432 -0.0427971 -0.0362225 -0.00285653 -0.0258047
0.0748803 -0.0488696 -0.0163575 -0.00361822 -0.0600953 0.0779679 -0.0599189 0.0958055 -0.0284985 -0.0720911
-0.00676857 -0.0254556 -0.0415323 -0.0183518 -0.0663048 -0.034808 -0.01044 0.107992 0.0796505 -0.0478796
-0.0271651 0.0872905 -0.0590336 -0.0588574 -0.0141091 -0.019497 -0.0248543 0.112252 -0.00701471 -0.0711253
-0.00686325 -0.0058007 0.108555 0.107541 -0.00390939 -0.0337287 -0.0406854 0.106978 -0.0173659 0.106203
-0.00161199 -0.0653421 -0.0200042 -0.000464644 -0.0259169 -0.0468669 0.0820075 -0.0240374 0.0671297 -0.0199423
0.0684033 -0.000865529 0.0662047 -0.0580722 -0.057896 0.0971682 0.0700816 -0.0704488 -0.00295114 0.0672556
-0.0328398 -0.0200177 -0.0396065 -0.0217396 -0.0646648 0.0710201 -0.00556999 -0.024938 0.109259 -0.0230287
0.0688994 -0.0459458 -0.00835775 -0.0228815 -0.019706 -0.0573951 -0.057219 0.113685 -0.00760381 0.0729112
-0.00805214 0.110061 0.109021 -0.0078335 -0.0319165 0.0729434 -0.0698305 -0.00704872 0.108291 -0.0388122
-0.0108944 0.107378 -0.0220199 -0.00527531 -0.0241156 -0.0234525 -0.0640481 -0.00429424 -0.0191262 -0.0452967
-0.0130152 0.0765801 -0.0043448 0.0980124 0.0800259 -0.0567807 -0.0566048 -0.0236022 -0.0055285 -0.0310849
-0.0211839 -0.0145802 -0.0380853 -0.0690129 -0.0232579 -0.0183431 -0.00738755 0.110324 0.08132 -0.0632436
-0.0446999 -0.0234419 -0.0156422 -0.00950719 0.0893095 0.114802 -0.00572425 -0.00671005 0.111216 0.110215
-0.00718642 -0.0204407 -0.0559902 -0.0558146 -0.030479 0.109647 -0.017518 -0.00694573 -0.0114376 0.108852
-0.0224833 -0.0376024 -0.00557148 -0.0162231 -0.0681581 -0.0230273 -0.00473722 -0.0132051 0.0837039 -0.00456522
-0.0624015 -0.04394 0.0992261 0.0689176 0.070149 -0.0164943 0.0680153 -0.0167833 -0.0196732 -0.00517184
-0.0145884 0.0717872 -0.029919 -0.0224156 0.0690841 -0.055162 -0.0549867 -0.0219116 -0.00647957 -0.0367652
0.111455 0.0726871 -0.0674924 -0.0164926 0.0707516 -0.0155892 -0.00808708 0.11612 -0.0160952 -0.0617447
0.11264 -0.0189847 -0.043154 0.111625 -0.0217425 -0.00570061 -0.00717473 0.0745625 0.11094 -0.00819899
-0.00953323 0.110048 0.0748112 -0.00812263 -0.0161943 -0.0292105 -0.0162313 -0.0213737 -0.00691011 -0.0545176
-0.0543428 -0.0361051 -0.00618548 -0.0109191 0.0782121 -0.0153932 -0.00588834 -0.0668189 0.10004 -0.0211224
-0.0165496 0.0818183 -0.0184511 -0.0121131 -0.00616843 -0.0157842 -0.0425451 -0.0610832 -0.00706258 0.112618
-0.0285065 -0.0207045 -0.0166722 -0.0130342 -0.0538718 -0.0536974 0.0829398 -0.0354271 -0.0205212 -0.0147679
-0.00827221 0.117372 0.0910608 -0.0152652 0.113924 0.112943 -0.0179358 -0.00889418 -0.0108754 -0.0659331
0.11241 -0.0122898 -0.00936253 -0.0136451 0.111634 -0.0165316 -0.0123899 -0.0419333 -0.0111372 -0.0602138
-0.0200475 -0.0103751 -0.0279456 -0.0104221 -0.0199053 0.0853301 -0.0147657 -0.0142547 -0.0140223 -0.00994106
0.101139 -0.0530207 -0.0528468 -0.0349383 -0.0162003 0.0706049 -0.00999639 -0.0114157 -0.0173317 0.0717778
0.0697188 0.0733613 -0.0650549 0.0707633 -0.0105823 0.113566 -0.0142175 -0.0142533 -0.0193429 -0.0411248
-0.0122451 0.0742359 -0.0593505 -0.0195197 -0.0158023 -0.0114182 -0.0273844 -0.0137589 0.0724357 0.118468
0.115107 0.114109 0.00525495 0.00285708 0.113433 -0.0141835 0.00118071 -0.0122218 -0.0521745 -0.0340635
-0.0520009 0.112536 -0.0128135 -0.0167449 0.000850541 0.0761132 0.0765223 0.00216334 -0.0137252 -0.0153866
-0.0188729 0.00311064 -0.01305 -0.064414 -0.0131859 0.00370724 -0.0132045 -0.0139531 -0.0403197 0.101738
-0.0189812 0.0797512 -0.0266398 -0.0587165 0.00385163 -0.0138597 0.0835408 -0.0162625 0.00349918 -0.0132388
-0.0149412 -0.0333803 -0.0133985 0.114384 -0.0515505 -0.0513773 -0.0184166 -0.0145648 -0.0136416 0.00294784
0.084477 0.119328 0.0927045 -0.0126708 0.115983 0.115019 -0.0638018 0.00183463 -0.000766907 0.114496
-0.013442 0.00236736 -0.0182803 -0.0150622 -0.00266738 -0.0397252 0.113712 -0.00327928 -0.0259066 -0.014471
-0.0128234 -0.0581131 -0.00202914 -0.0133158 -0.0157512 0.0016862 -0.000865166 -0.0179149 -0.0327155 -0.0154382
0.0868705 -0.0509594 -0.0507865 -0.000209029 -0.0132898 0.102749 0.000991984 -0.0122134 5.6246e-05 -0.0140493
-0.012952 0.0721243 0.0732662 -0.0124 0.0712428 -0.0156751 -0.0175846 -0.000121359 -0.0630148 0.115347
-0.0391636 0.000375126 0.0748312 -0.0253504 -0.0130512 0.0722817 -0.0174288 -0.000471389 -0.0151161 -0.0573394
0.120489 0.0756796 0.117235 0.0739612 0.116255 -0.0157607 -0.0322703 -7.60197e-05 -0.000857749 -0.00226193
0.115605 -0.0125488 -0.00625993 -0.0501998 -0.0136675 -0.0500273 -0.00689897 0.114718 -0.0117333 -0.00927692
-0.012802 -0.0119442 0.0775456 -0.00670002 -0.001378 0.0780538 -0.00676117 -0.0170554 -0.000470572 -0.015673
-0.0622758 -0.0170061 -0.00478546 -0.0384341 -0.0248272 -0.0144908 0.103431 -0.00195549 -0.0121689 0.0811906
-0.00581385 -0.0566094 -0.0132725 -0.0125248 0.0850709 -0.000758082 -0.0314678 -0.0045295 -0.0111564 -0.0115126
-0.0155196 0.116395 -0.00249174 -0.0494793 -0.049307 -0.00613146 0.0859133 0.121632 -0.00088981 -0.0165469
-0.0165671 -0.0118302 0.118402 0.117455 -0.00291314 -0.0121846 0.0941954 -0.00504942 0.116956 -0.0128526
-0.0241438 -0.0618056 -0.0140049 0.116187 -0.0377374 -0.0153447 -0.00685878 -0.0561414 -0.0111314 -0.00328659
-0.0105952 -0.000849877 -0.0308789 0.0883059 -0.0118435 -0.0114853 -0.0490153 -0.0488431 -0.00595154 0.104369
-0.01512 -0.0160518 -0.0124707 -0.00358419 -0.0158977 -0.000765338 -0.00783602 -0.0135183 0.0735677 0.117213
-0.0235 0.0747054 0.0726716 -0.0372911 -0.0613816 -0.0107214 0.0762559 0.073691 -0.0101349 -0.0115517
-0.00374243 -0.0148311 0.122602 -0.0111116 -0.0557216 -0.00684374 0.119446 0.118477 0.0770817 -0.000660372
-0.0303563 0.117832 0.00770228 0.0753691 0.116941 0.00392632 -0.0121183 -0.0155465 -0.0486013 -0.0484294
0.00354883 -0.00375054 -0.00863492 0.0789597 -0.015284 0.0794519 -0.0145503 -0.0129326 -0.0112688 -0.01026
0.0050856 -0.000479332 -0.0230755 -0.0107556 -0.036895 0.104833 -0.0607685 -0.00968038 -0.00747824 0.0825999
-0.00369147 0.0864754 -0.0117382 -0.0551158 0.00549416 -0.0151228 -0.0300675 0.117923 -0.0143118 -0.000220134
-0.0109371 -0.0090526 -0.0480019 -0.0478301 0.123379 -0.0148762 -0.00981633 -0.00362848 0.0872964 -0.0104406
0.120243 0.119306 -0.0123847 0.0054311 0.118805 0.0955879 0.118023 -0.0226979 -0.00915386 -0.00768946
-0.0363089 -0.0113156 -0.0601564 1.31826e-05 -0.0140586 -0.0147059 -0.00348976 -0.0106052 -0.0545084 0.0896825
0.00489693 -0.0293976 0.105729 -0.0101081 -0.00908901 -0.00943377 -0.0473984 -0.0472267 -0.0144985 -0.0120019
0.00020155 -0.0137608 0.118769 -0.00327524 -0.0109241 -0.00866089 0.0750176 -0.0221352 0.0761793 0.0740834
-0.0103255 -0.00760747 -0.0357153 0.00419656 0.0777339 0.124408 -0.0142309 0.0750525 -0.0597762 0.121359
0.120404 0.11977 -0.0097284 0.016348 0.118881 0.0155912 0.0785403 0.0132982 -0.0541265 0.0767013
-0.00904143 0.000427803 -0.0289017 -0.00305485 0.0137998 0.0134494 -0.0134763 -0.00888952 0.0153356 -0.0139571
-0.0470155 -0.0468438 0.0803959 -0.0116177 -0.0105712 0.0807389 -0.0100472 0.0145207 -0.00828503 0.00370652
0.106271 0.0154812 -0.0215764 -0.0137809 -0.00289795 -0.00936494 0.00071076 0.0839858 -0.035338 -0.00731707
0.0146149 0.0877064 -0.0594239 -0.0132371 0.119674 -0.00861045 0.0157193 -0.0537761 -0.0284408 -0.00970454
0.125406 -0.0102064 0.12237 0.121445 0.0146166 0.0886594 -0.0134189 -0.00270487 -0.0111161 0.120958
-0.0466678 -0.0464963 -0.00853409 0.0118077 0.120184 0.0967631 0.0102218 0.00346002 0.000957174 0.00891485
-0.00791153 0.00847944 -0.00905281 0.0153888 0.0091456 -0.0134252 -0.0129806 -0.0212058 0.00992685 -0.0350031
-0.00820992 0.0142512 0.0101522 0.0910472 -0.0588825 -0.00936802 -0.00696811 -0.00245413 0.107033 0.0101042
-0.00981272 0.00115331 -0.0282091 0.0151312 -0.0532392 0.0102371 -0.0106306 -0.0130573 0.120321 -0.00873217
0.00343712 -0.0126682 -0.00744756 0.0103494 -0.0461339 -0.0459623 0.0137959 0.0762823 -0.0130736 0.0774809
0.0753048 0.12619 -0.00817985 -0.00221684 -0.0208845 0.0102497 0.123211 0.122263 0.0790792 -0.00788046
0.0762125 0.121622 -0.00910012 0.120721 -0.0027296 0.00138621 -0.00359634 0.0144828 -0.0344805 -0.00530141
0.0798675 0.010005 -0.00544544 -0.00946131 0.0778367 -0.058332 -0.00515093 -0.00391146 -0.0123808 -0.0276019
-0.00838146 0.00993491 -0.0526919 0.0816815 -0.00657513 0.0134441 -0.00413017 -0.0102956 0.0818672 -0.0127342
-0.00204983 -0.00700651 0.00362747 0.107365 -0.00363345 -0.0126498 -0.0455887 -0.0454171 0.00986397 -0.00884045
0.00168351 -0.00397281 -0.00753987 0.0852543 0.0145235 -0.0203841 0.088812 0.120884 -0.00915214 -0.00339141
0.00958482 -0.0077631 -0.0339428 -0.0121625 0.126791 -0.00184894 -0.00805445 -0.00397363 0.123816 0.122898
0.0132868 -0.0580032 0.0899225 0.122397 0.121601 0.00926645 -0.0271597 0.0978176 -0.052362 -0.00996076
0.0019311 -0.00373011 -0.0066805 -0.0122549 -0.00852785 -0.0122446 0.0140844 -0.00714988 0.00386558 -0.0452584
-0.0450869 -0.00619571 0.00925096 -0.00420791 -0.0088256 -0.0119317 0.0923054 -0.0198788 -0.00158871 0.108074
-0.0037694 -0.00777507 -0.033619 0.0093259 0.0131916 0.0021043 0.121553 -0.0577211 -0.00821428 -0.00447589
-0.00739211 -0.0267544 -0.00951253 -0.00635361 -0.052081 -0.0119329 -0.0117693 0.127643 0.0091398 0.07721
0.0784846 0.124748 0.123811 -0.00678533 0.0761744 -0.00135222 0.0144431 -0.0116453 0.123177 -0.00432142
0.0801219 0.122275 -0.00845742 0.0770482 -0.0449794 -0.0448081 -0.00619842 -0.0079297 0.00417921 -0.0195662
0.0809114 -0.00747785 -0.00808971 0.00890815 0.0786764 0.00231575 -0.00476869 -0.00579254 0.0133624 -0.0333503
-0.00795462 -0.00731401 0.0827434 0.0827162 0.108457 -0.00120544 -0.0572616 -0.00593871 0.00901644 -0.00908107
-0.00424543 -0.011622 -0.0113658 -0.0265864 -0.0071781 -0.00649118 -0.0114688 -0.0516238 0.0863359 -0.00813275
0.122297 0.0142898 0.0896633 0.00259757 -0.00713958 -0.00697541 -0.0445232 -0.0443517 -0.00486742 0.128478
0.00923797 -0.0193109 -0.00718698 0.125591 0.124683 0.124198 -0.00770074 0.0910232 0.123415 -0.00102123
0.00445541 0.0986182 0.013481 -0.0329051 -0.0111346 -0.00464486 0.00918348 -0.00555165 -0.0112428 -0.00880772
-0.00729198 -0.0568089 -0.00618756 -0.0260557 -0.00543089 -0.00785565 0.00284811 -0.0112138 0.0934189 -0.051172
-0.00683011 0.108968 -0.00498221 0.014792 -0.0440708 -0.0438993 -0.000768469 -0.00739708 0.00906692 -0.018885
0.122722 -0.00742805 -0.0108967 -0.00433711 0.129047 -0.00663133 -0.0324557 0.126215 0.125283 0.0137695
0.00303995 0.0786432 -0.0108887 0.124647 -0.00528448 0.08001 -0.00583869 0.0774706 0.123739 0.00925605
-0.00853893 0.00475171 0.0047169 -0.00756474 0.00377976 0.0817204 -0.0565743 0.0782159 -0.0256974 -0.00657897
-0.0108082 0.0035526 -0.00052445 -0.0048508 -0.0509352 -0.00757457 0.0825335 -0.00709837 0.0797433 0.00394779
0.0147244 -0.0438325 -0.043661 -0.0106155 0.00953858 0.0842931 -0.0050402 -0.0184607 0.0836917 0.109044
0.00326179 0.00401876 -0.00452346 -0.0322216 -0.0106316 -0.00551971 0.08777 0.123047 -0.00501729 -0.00723492
0.0905859 -0.000358195 -0.00816013 -0.00765776 -0.00631288 0.013908 0.00953433 0.00409527 0.129422 -0.0563801
-0.0103993 -0.0253803 -0.00686278 0.126592 0.12569 -0.00478831 0.125195 -0.00620791 0.124396 -0.0507393
-0.0103517 0.0923536 0.00502853 0.0994322 0.00354199 -0.0436357 -0.0434643 0.00406288 -0.0182305 0.00944354
0.0151903 -0.00408099 -0.000162482 -0.00770848 -0.00527402 -0.0103743 -0.00695138 0.0947024 -0.00466498 -0.00600988
-0.032034 0.109606 -0.00779705 -0.00663393 -0.00465281 0.00400022 -0.0101754 -0.0101413 -0.0252911 -0.0560194
0.123539 0.00962171 -0.00455701 0.0141616 0.00377718 -0.0503805 0.130079 0.127319 0.126395 8.98864e-05
0.125765 -0.0432773 -0.0431059 0.12486 -0.0180498 0 0.0810128 0.0825435 0 0.0796155