/*--------------------------------*- C++ -*----------------------------------*\
  =========                 |
  \\      /  F ield         | OpenFOAM: The Open Source CFD Toolbox
   \\    /   O peration     | Website:  https://openfoam.org
    \\  /    A nd           | Version:  10
     \\/     M anipulation  |
\*---------------------------------------------------------------------------*/
FoamFile
{
    format      ascii;
    class       volScalarField;
    location    "2000";
    object      k;
}
// * * * * * * * * * * * * * * * * * * * * * * * * * * * * * * * * * * * * * //

dimensions      [0 2 -2 0 0 0 0];

internalField   nonuniform List<scalar> 
55398
(
0.232305
0.206843
0.19791
0.254928
0.391683
0.742677
0.224775
0.199007
0.178751
0.162482
0.149062
0.140815
0.200899
0.65855
2.64443
4.14278
3.99222
4.19818
4.01427
3.6592
0.212827
0.190905
0.172968
0.158232
0.146497
0.139642
0.160991
0.278706
1.74332
3.53651
2.58267
1.99129
1.5965
1.07733
0.812338
0.212867
0.190975
0.173091
0.15839
0.146656
0.138959
0.145375
0.177861
0.294113
0.687756
1.2039
0.509351
0.260655
0.218099
0.192259
0.176499
0.159361
0.151738
0.213042
0.191238
0.173385
0.158666
0.146763
0.138331
0.137472
0.156963
0.193063
0.214001
0.230511
0.203836
0.17032
0.14364
0.13258
0.123627
0.116275
0.108464
0.102245
0.0968506
0.213223
0.191522
0.173716
0.158982
0.146936
0.137773
0.133644
0.139492
0.145861
0.147086
0.145504
0.137132
0.129174
0.121196
0.113576
0.107181
0.101744
0.0962193
0.0915158
0.0872654
0.213395
0.191798
0.174043
0.159274
0.147189
0.137508
0.131307
0.130712
0.131156
0.130212
0.126342
0.120648
0.114672
0.108302
0.102734
0.0977805
0.093307
0.0888145
0.08485
0.0812
0.213554
0.192055
0.174356
0.159649
0.147417
0.137527
0.13022
0.126147
0.123323
0.120394
0.116168
0.111378
0.106346
0.101076
0.0964099
0.0920707
0.0881066
0.0841914
0.0806554
0.0773608
0.213609
0.192257
0.174655
0.160004
0.147737
0.137683
0.129663
0.123905
0.119341
0.115146
0.110615
0.105975
0.101253
0.0965768
0.0923179
0.0883983
0.0847378
0.081188
0.0779067
0.0748526
0.213847
0.192516
0.174923
0.160257
0.148005
0.137846
0.129498
0.122868
0.117344
0.112382
0.107554
0.102892
0.0983835
0.0939954
0.0899857
0.0862418
0.0827428
0.0793808
0.0762576
0.0733219
0.213972
0.192722
0.175176
0.160535
0.148273
0.138029
0.129459
0.122371
0.116334
0.110947
0.105893
0.101131
0.0967057
0.0924411
0.0885271
0.0848651
0.0814762
0.078226
0.0751972
0.0723315
0.214086
0.192912
0.175412
0.160796
0.148531
0.138232
0.129522
0.122178
0.115859
0.110193
0.104966
0.100147
0.0956978
0.0915452
0.0876456
0.0840554
0.0807047
0.0775229
0.0745486
0.0717202
0.214193
0.193089
0.175632
0.161042
0.148785
0.138442
0.129649
0.122144
0.115647
0.109797
0.104457
0.0995763
0.0950984
0.09095
0.087103
0.083534
0.0802046
0.0770634
0.0741253
0.0713251
0.214292
0.193254
0.175838
0.161275
0.149065
0.138637
0.129796
0.122196
0.115567
0.109623
0.104181
0.0992377
0.0947447
0.0905957
0.0867589
0.0832178
0.0799065
0.076792
0.0738781
0.0710958
0.214386
0.19341
0.176032
0.161493
0.149256
0.13885
0.129964
0.122311
0.115595
0.109577
0.104076
0.0991085
0.0945738
0.0904226
0.0865945
0.0830614
0.0797573
0.0766566
0.0737562
0.0709853
0.214474
0.193558
0.176215
0.161696
0.149442
0.139055
0.130147
0.12245
0.115685
0.109613
0.1041
0.099103
0.0945503
0.0903922
0.0865692
0.0830283
0.0797283
0.0766331
0.0737411
0.0709773
0.214557
0.193697
0.176388
0.161888
0.149651
0.139241
0.130331
0.122615
0.115826
0.10973
0.104199
0.0991853
0.0946177
0.0904484
0.0866139
0.0830707
0.0797644
0.0766657
0.073769
0.0710025
0.214611
0.193783
0.176485
0.161986
0.149735
0.139316
0.130387
0.122666
0.115847
0.109738
0.104187
0.0991622
0.0945788
0.0903995
0.0865655
0.0830013
0.0796755
0.0765622
0.0736535
0.070878
0.232211
0.2047
0.188591
0.208744
0.412917
0.534399
0.224765
0.198993
0.178729
0.162359
0.149077
0.140295
0.19058
0.59519
2.76574
4.35805
4.24702
4.1161
3.94112
3.48951
0.212795
0.190868
0.172979
0.158235
0.146513
0.139605
0.159305
0.278699
1.64771
3.33241
2.50114
1.89431
1.03201
1.07012
0.719199
0.212869
0.190974
0.173093
0.158397
0.146676
0.138943
0.144301
0.176343
0.318672
0.518627
1.13014
0.332093
0.25819
0.217119
0.190239
0.172477
0.1562
0.145659
0.213046
0.191239
0.173389
0.158675
0.14677
0.138307
0.13699
0.155652
0.185447
0.206809
0.215423
0.202488
0.159546
0.143763
0.13165
0.123012
0.11573
0.107998
0.101609
0.0959576
0.213227
0.191524
0.17372
0.158992
0.146944
0.137752
0.13344
0.138607
0.144735
0.146347
0.143194
0.136734
0.129078
0.120679
0.113027
0.1069
0.10149
0.0959531
0.0911401
0.0867372
0.213399
0.191799
0.174047
0.159297
0.147184
0.13752
0.131214
0.130344
0.130548
0.129681
0.125874
0.120473
0.114636
0.108244
0.102704
0.0976669
0.0931661
0.0887403
0.0846696
0.0809013
0.213558
0.192055
0.174359
0.159656
0.147436
0.137495
0.130197
0.125989
0.123037
0.120099
0.115921
0.111244
0.106305
0.101053
0.0963701
0.0920035
0.0880226
0.0841422
0.0805555
0.077184
0.213641
0.192254
0.174646
0.159997
0.14775
0.137697
0.129652
0.123861
0.119227
0.115009
0.110483
0.105887
0.10119
0.0965551
0.0923077
0.0883561
0.0846913
0.0811581
0.0778555
0.0747495
0.213847
0.192518
0.174925
0.160264
0.148014
0.137859
0.129484
0.122872
0.117313
0.112327
0.107489
0.102838
0.0983417
0.0939852
0.0899755
0.0862163
0.0827136
0.0793614
0.0762258
0.073257
0.213971
0.192723
0.175179
0.160541
0.14828
0.138056
0.129462
0.122388
0.116337
0.110925
0.105861
0.101079
0.0966631
0.0924331
0.0885219
0.0848552
0.0814553
0.0782146
0.0751803
0.0722945
0.214086
0.192913
0.175414
0.160801
0.148537
0.138237
0.12956
0.122213
0.115864
0.110187
0.104954
0.100123
0.0956638
0.0915575
0.0876294
0.0840424
0.0806913
0.0775147
0.0745388
0.0716983
0.214192
0.19309
0.175633
0.161046
0.14879
0.138448
0.129682
0.122178
0.115652
0.1098
0.104453
0.0995619
0.0950761
0.0909455
0.0871063
0.0835276
0.0801973
0.0770581
0.0741204
0.0713131
0.214292
0.193255
0.175839
0.161278
0.14907
0.138656
0.129826
0.122225
0.115575
0.109625
0.104181
0.0992248
0.0947375
0.0905957
0.0867608
0.0832154
0.0799025
0.0767885
0.0738759
0.0710897
0.214385
0.193411
0.176033
0.161495
0.14926
0.138875
0.129994
0.122337
0.115604
0.10958
0.104077
0.0991061
0.0945696
0.0904225
0.0865952
0.0830594
0.0797545
0.0766539
0.0737555
0.070983
0.214473
0.193558
0.176215
0.161697
0.149449
0.139069
0.130167
0.12247
0.115692
0.109616
0.104101
0.099102
0.0945472
0.0903921
0.0865687
0.083028
0.0797261
0.0766311
0.0737406
0.0709761
0.214556
0.193697
0.176388
0.161888
0.149651
0.139252
0.130343
0.122627
0.115831
0.109732
0.1042
0.0991845
0.094615
0.0904486
0.0866147
0.0830684
0.0797616
0.0766633
0.0737684
0.0710013
0.21461
0.193782
0.176485
0.161986
0.149734
0.139319
0.13039
0.12267
0.115849
0.109739
0.104187
0.0991617
0.0945767
0.0903986
0.0865651
0.0829976
0.0796742
0.0765614
0.0736543
0.0708789
0.232241
0.203883
0.18464
0.18745
0.310118
0.445467
0.224769
0.198999
0.17874
0.162336
0.149343
0.140514
0.181006
0.490774
2.8511
4.48768
4.37744
4.08402
3.88525
3.44484
0.212791
0.190852
0.172976
0.158228
0.146517
0.139576
0.158793
0.269895
2.46076
3.33451
2.56613
1.88525
0.978791
0.997592
0.708168
0.212872
0.190972
0.173095
0.158395
0.14668
0.138952
0.14456
0.176448
0.299613
0.411314
0.885931
0.318883
0.260746
0.218616
0.189075
0.169758
0.155172
0.144508
0.21305
0.191236
0.17339
0.158673
0.146767
0.138313
0.137107
0.155794
0.187743
0.206997
0.213718
0.199213
0.157817
0.142694
0.131524
0.122803
0.115278
0.107633
0.101399
0.0958671
0.21323
0.191522
0.173721
0.15899
0.14694
0.137761
0.133477
0.138717
0.145011
0.146487
0.14309
0.136731
0.128406
0.119877
0.112844
0.106789
0.101277
0.0957516
0.0910104
0.0866831
0.213402
0.191797
0.174048
0.159304
0.147174
0.137547
0.131224
0.130373
0.130634
0.129726
0.125801
0.120479
0.114689
0.108077
0.102611
0.0976397
0.0930583
0.0885719
0.0845066
0.0808564
0.213561
0.192054
0.17436
0.159652
0.147439
0.137526
0.130175
0.125991
0.123059
0.120105
0.115896
0.111225
0.106299
0.100994
0.0963135
0.0919871
0.087959
0.0840388
0.080463
0.0771618
0.213663
0.192254
0.174639
0.159982
0.147747
0.137701
0.12966
0.123863
0.11923
0.115012
0.110467
0.105869
0.101211
0.0965245
0.0922842
0.088346
0.0846568
0.0810984
0.0778055
0.0747361
0.213847
0.192517
0.174926
0.160263
0.148012
0.137863
0.129486
0.122869
0.117312
0.112331
0.107483
0.102797
0.0983302
0.0939621
0.089957
0.086209
0.0826929
0.079325
0.0761948
0.0732467
0.213972
0.192722
0.17518
0.16054
0.148278
0.138053
0.129469
0.122387
0.116337
0.110928
0.105856
0.10106
0.0966658
0.0924207
0.0885107
0.0848539
0.0814424
0.0781931
0.0751631
0.0722896
0.214086
0.192912
0.175415
0.160801
0.148536
0.138241
0.129556
0.122209
0.115866
0.110189
0.104953
0.100119
0.0956662
0.0915366
0.0876078
0.084033
0.0806819
0.0775002
0.0745283
0.071696
0.214193
0.193089
0.175635
0.161046
0.148789
0.138452
0.12968
0.122175
0.115653
0.109803
0.104452
0.0995598
0.0950764
0.0909339
0.0870805
0.0835165
0.0801919
0.0770493
0.0741147
0.0713124
0.214292
0.193255
0.175841
0.161278
0.149064
0.138665
0.129827
0.122223
0.115578
0.109626
0.104179
0.0992284
0.0947301
0.0906037
0.0867435
0.0832065
0.0799
0.0767832
0.073873
0.0710898
0.214386
0.19341
0.176034
0.161495
0.149263
0.138873
0.129994
0.122336
0.115606
0.109581
0.104076
0.0991055
0.0945678
0.0904219
0.0865944
0.0830553
0.0797539
0.0766508
0.0737543
0.0709835
0.214474
0.193558
0.176217
0.161698
0.149453
0.139065
0.130167
0.122469
0.115694
0.109617
0.104101
0.0991017
0.0945451
0.0903917
0.0865672
0.0830259
0.0797262
0.076629
0.07374
0.0709766
0.214557
0.193697
0.176389
0.161888
0.149652
0.139251
0.130343
0.122626
0.115832
0.109733
0.104199
0.0991843
0.0946129
0.0904482
0.0866135
0.0830662
0.079761
0.0766604
0.0737676
0.0710018
0.214611
0.193782
0.176486
0.161986
0.149735
0.139318
0.13039
0.122669
0.11585
0.109739
0.104187
0.0991616
0.0945744
0.0903974
0.0865661
0.0829927
0.0796736
0.07656
0.0736551
0.0708801
0.232294
0.203606
0.182341
0.175857
0.260786
0.40487
0.224772
0.199001
0.178747
0.162312
0.149517
0.140804
0.17766
0.443876
2.77496
4.51276
4.42282
4.18112
3.86353
3.47786
0.212786
0.19084
0.172969
0.158222
0.146521
0.139568
0.158214
0.268807
2.83027
3.37438
2.64137
1.90791
0.964405
0.963288
0.702651
0.212874
0.190971
0.173095
0.158393
0.146682
0.138957
0.144684
0.177582
0.292204
0.385161
0.747311
0.302808
0.257965
0.218845
0.1892
0.170093
0.155378
0.144033
0.213052
0.191235
0.17339
0.158671
0.146764
0.138318
0.137208
0.156043
0.188733
0.208058
0.213199
0.19801
0.157689
0.143471
0.131855
0.122743
0.115116
0.107737
0.101414
0.095856
0.213233
0.191521
0.17372
0.158988
0.146936
0.137767
0.133515
0.138825
0.145288
0.146691
0.143091
0.136815
0.128336
0.120037
0.112872
0.106718
0.101203
0.0958151
0.091014
0.0866739
0.213404
0.191796
0.174048
0.159309
0.147168
0.137566
0.131237
0.130405
0.130721
0.129787
0.125785
0.120505
0.114373
0.107768
0.102533
0.0976003
0.0930277
0.0886035
0.0845265
0.0808468
0.213563
0.192053
0.17436
0.15965
0.14744
0.137548
0.130163
0.125991
0.123081
0.120118
0.115891
0.111231
0.106101
0.100788
0.0962617
0.091962
0.0879405
0.0840604
0.0804713
0.0771586
0.213679
0.192258
0.174635
0.159972
0.147741
0.137704
0.129662
0.123865
0.119234
0.115016
0.110464
0.105855
0.101179
0.0964363
0.0922714
0.0883364
0.0846481
0.0811093
0.0778102
0.0747337
0.213848
0.192516
0.174926
0.160262
0.14801
0.137865
0.129487
0.122867
0.117311
0.112335
0.107482
0.10278
0.0983238
0.0939223
0.0899522
0.0862034
0.0826877
0.0793306
0.0761958
0.0732431
0.213972
0.192722
0.175181
0.16054
0.148277
0.138051
0.129473
0.122387
0.116337
0.11093
0.105854
0.101057
0.096649
0.0923914
0.0885092
0.0848534
0.0814393
0.0781956
0.0751629
0.0722881
0.214087
0.192912
0.175416
0.160801
0.148534
0.138244
0.129554
0.122206
0.115867
0.110192
0.104953
0.100118
0.095658
0.0915001
0.087623
0.0840317
0.0806786
0.0775004
0.0745271
0.0716953
0.214193
0.193089
0.175636
0.161046
0.148788
0.138454
0.129678
0.122172
0.115653
0.109805
0.104453
0.0995591
0.0950711
0.0909157
0.08708
0.0835159
0.0801903
0.0770491
0.0741133
0.0713122
0.214293
0.193254
0.175842
0.161278
0.149059
0.138668
0.129827
0.122221
0.115579
0.109628
0.104179
0.0992309
0.0947235
0.0905951
0.0867271
0.0832017
0.0798985
0.0767825
0.0738717
0.0710899
0.214386
0.19341
0.176035
0.161496
0.149266
0.13887
0.129993
0.122335
0.115608
0.109582
0.104076
0.0991051
0.0945661
0.0904145
0.0865767
0.0830527
0.0797539
0.07665
0.0737529
0.0709838
0.214474
0.193557
0.176218
0.161698
0.149457
0.139062
0.130165
0.122468
0.115695
0.109618
0.104101
0.0991015
0.0945443
0.0903875
0.0865534
0.083025
0.079727
0.0766285
0.0737386
0.0709768
0.214557
0.193697
0.17639
0.161889
0.149653
0.13925
0.130342
0.122626
0.115833
0.109733
0.104199
0.0991843
0.0946122
0.0904449
0.0866031
0.0830666
0.0797618
0.0766596
0.0737664
0.0710021
0.214611
0.193782
0.176487
0.161986
0.149735
0.139318
0.13039
0.122669
0.115851
0.109739
0.104187
0.0991615
0.0945739
0.0903967
0.0865612
0.0829906
0.0796736
0.0765592
0.0736546
0.0708809
0.232321
0.20366
0.181168
0.168705
0.231847
0.375218
0.224773
0.199002
0.17875
0.162274
0.149518
0.140934
0.174134
0.407841
2.69887
4.44624
4.43185
4.26663
3.88959
3.50498
0.212782
0.190831
0.172961
0.158215
0.146523
0.139566
0.157414
0.260282
3.0968
3.36001
2.72002
1.9443
0.953309
0.941137
0.697175
0.212875
0.19097
0.173095
0.158392
0.146683
0.13896
0.144654
0.177465
0.286596
0.389466
0.743642
0.286371
0.251579
0.217281
0.188872
0.170217
0.155589
0.143737
0.213053
0.191235
0.17339
0.15867
0.146762
0.138321
0.137268
0.156252
0.188843
0.208355
0.212481
0.19754
0.15776
0.14392
0.132161
0.122764
0.115005
0.107787
0.101437
0.0958532
0.213234
0.19152
0.17372
0.158987
0.146935
0.13777
0.133547
0.138922
0.145513
0.146911
0.143157
0.136885
0.128317
0.120145
0.112911
0.106672
0.101138
0.0958428
0.0910236
0.0866693
0.213406
0.191795
0.174048
0.159312
0.147165
0.137579
0.131252
0.130437
0.130799
0.129852
0.125782
0.120507
0.114282
0.107968
0.102535
0.0975716
0.0929983
0.08862
0.0845464
0.0808451
0.213564
0.192053
0.17436
0.159649
0.147441
0.137563
0.130158
0.125992
0.123098
0.120132
0.115886
0.111232
0.106052
0.100872
0.0962495
0.0919399
0.0879216
0.0840719
0.0804811
0.0771587
0.213689
0.192263
0.174634
0.159964
0.147736
0.137705
0.129663
0.123866
0.119237
0.11502
0.110462
0.105843
0.101186
0.0964444
0.0922664
0.0883285
0.0846402
0.0811157
0.0778155
0.0747332
0.213848
0.192515
0.174926
0.160262
0.148009
0.137866
0.129488
0.122866
0.11731
0.112338
0.107482
0.102768
0.0983283
0.0939362
0.0899534
0.0861997
0.0826834
0.0793339
0.0761975
0.073241
0.213972
0.192722
0.175181
0.16054
0.148276
0.13805
0.129474
0.122388
0.116337
0.110932
0.105854
0.101055
0.0966434
0.0923929
0.0885095
0.0848532
0.0814372
0.0781972
0.0751633
0.0722872
0.214087
0.192912
0.175417
0.160801
0.148533
0.138246
0.129553
0.122204
0.115867
0.110194
0.104954
0.100117
0.0956556
0.0914897
0.0876329
0.0840337
0.0806768
0.0775003
0.0745264
0.0716945
0.214193
0.193089
0.175637
0.161046
0.148788
0.138455
0.129677
0.12217
0.115652
0.109807
0.104453
0.0995588
0.0950693
0.0909112
0.0870825
0.0835168
0.0801894
0.0770488
0.0741124
0.0713118
0.214293
0.193254
0.175842
0.161279
0.149056
0.138669
0.129828
0.12222
0.11558
0.109629
0.104179
0.0992326
0.0947203
0.0905836
0.0867357
0.0832014
0.0798975
0.076782
0.0738706
0.0710897
0.214386
0.19341
0.176036
0.161496
0.149268
0.138868
0.129992
0.122334
0.115609
0.109583
0.104076
0.0991047
0.0945655
0.0904115
0.0865766
0.0830516
0.0797537
0.0766496
0.0737517
0.0709836
0.214474
0.193557
0.176219
0.161699
0.14946
0.13906
0.130164
0.122467
0.115696
0.109619
0.104101
0.0991013
0.0945444
0.0903854
0.0865509
0.0830243
0.0797275
0.0766284
0.0737376
0.0709766
0.214557
0.193696
0.176391
0.161889
0.149654
0.139249
0.130342
0.122625
0.115834
0.109734
0.1042
0.0991842
0.0946129
0.0904431
0.0865996
0.0830665
0.0797624
0.0766593
0.0737654
0.071002
0.214611
0.193782
0.176488
0.161987
0.149735
0.139318
0.13039
0.122669
0.115851
0.10974
0.104187
0.0991614
0.0945749
0.0903984
0.0865562
0.0829883
0.0796729
0.0765585
0.073654
0.0708814
0.232328
0.20384
0.180873
0.164552
0.214252
0.354452
0.224773
0.199002
0.178752
0.162234
0.149375
0.140862
0.170737
0.383849
2.61525
4.32004
4.41475
4.31331
3.94643
3.52804
0.212779
0.190824
0.172954
0.158209
0.146521
0.139563
0.156514
0.251152
3.37624
3.27737
2.79623
1.99456
0.946547
0.925452
0.691491
0.212876
0.19097
0.173094
0.158391
0.146683
0.138962
0.144516
0.176352
0.279341
0.398978
0.844832
0.27378
0.243974
0.214228
0.187864
0.169999
0.155684
0.143541
0.213054
0.191235
0.17339
0.158669
0.146761
0.138323
0.137288
0.156304
0.188546
0.208085
0.211635
0.197111
0.157872
0.144197
0.132403
0.12282
0.114932
0.107803
0.101456
0.095855
0.213235
0.19152
0.17372
0.158987
0.146934
0.137772
0.133569
0.138992
0.145669
0.147101
0.143251
0.136945
0.128324
0.120228
0.112954
0.106644
0.101082
0.0958447
0.0910294
0.0866665
0.213406
0.191795
0.174048
0.159315
0.147164
0.137587
0.131266
0.130466
0.130866
0.129917
0.12579
0.120495
0.114211
0.108078
0.102565
0.0975584
0.0929731
0.0886243
0.0845611
0.080847
0.213565
0.192053
0.17436
0.159648
0.147441
0.137574
0.130159
0.125996
0.123113
0.120147
0.115885
0.111231
0.106017
0.100923
0.096254
0.0919248
0.0879035
0.0840746
0.0804882
0.0771602
0.213697
0.192268
0.174634
0.159959
0.147732
0.137705
0.129664
0.123867
0.11924
0.115022
0.110463
0.105834
0.101186
0.096455
0.0922665
0.0883229
0.084633
0.0811178
0.0778196
0.0747336
0.213848
0.192515
0.174926
0.160261
0.148008
0.137867
0.129489
0.122866
0.117309
0.112339
0.107483
0.102758
0.0983285
0.093947
0.0899574
0.0861979
0.0826796
0.0793353
0.0761992
0.0732399
0.213972
0.192721
0.175182
0.16054
0.148275
0.138049
0.129476
0.122389
0.116336
0.110933
0.105854
0.101053
0.0966388
0.0923932
0.0885103
0.0848532
0.0814356
0.0781978
0.0751638
0.0722865
0.214087
0.192911
0.175417
0.160801
0.148533
0.138247
0.129553
0.122202
0.115866
0.110195
0.104955
0.100116
0.0956537
0.0914826
0.0876383
0.0840364
0.0806762
0.0775
0.0745257
0.0716937
0.214194
0.193088
0.175637
0.161046
0.148787
0.138456
0.129677
0.122169
0.115651
0.109808
0.104454
0.0995587
0.095068
0.0909078
0.0870844
0.0835179
0.080189
0.0770485
0.0741116
0.0713113
0.214293
0.193254
0.175843
0.161279
0.149054
0.138669
0.129828
0.12222
0.11558
0.10963
0.10418
0.0992339
0.0947186
0.0905751
0.0867412
0.0832028
0.079897
0.0767815
0.0738697
0.0710892
0.214386
0.19341
0.176037
0.161497
0.149269
0.138867
0.129991
0.122333
0.115609
0.109584
0.104077
0.0991045
0.0945651
0.0904086
0.0865784
0.0830516
0.0797536
0.0766493
0.0737508
0.0709833
0.214474
0.193557
0.176219
0.161699
0.149461
0.139059
0.130163
0.122466
0.115696
0.109619
0.104102
0.0991013
0.0945445
0.0903829
0.086551
0.0830241
0.0797277
0.0766285
0.0737369
0.0709763
0.214558
0.193696
0.176391
0.16189
0.149654
0.139249
0.130342
0.122624
0.115834
0.109734
0.1042
0.0991842
0.0946134
0.0904403
0.086599
0.0830665
0.0797628
0.0766592
0.0737647
0.0710018
0.214612
0.193782
0.176488
0.161987
0.149736
0.139318
0.13039
0.122669
0.115851
0.10974
0.104187
0.0991615
0.0945756
0.090401
0.0865533
0.082986
0.0796719
0.0765577
0.0736534
0.0708816
0.232329
0.204021
0.181139
0.162466
0.204345
0.342602
0.224772
0.199002
0.178753
0.162201
0.149144
0.140599
0.167802
0.374668
2.52893
4.20274
4.37672
4.3281
4.01149
3.54855
0.212776
0.190818
0.172949
0.158202
0.146517
0.139554
0.155645
0.243531
3.64982
3.13377
2.857
2.05583
0.944715
0.91518
0.68582
0.212877
0.19097
0.173094
0.15839
0.146683
0.138963
0.144316
0.174761
0.27112
0.394589
0.956268
0.266601
0.237046
0.210371
0.186202
0.169396
0.155594
0.14337
0.213055
0.191235
0.17339
0.158669
0.146761
0.138323
0.137276
0.156159
0.18782
0.207389
0.210673
0.196573
0.157947
0.144379
0.132587
0.122882
0.114887
0.107804
0.101467
0.095858
0.213235
0.19152
0.173721
0.158987
0.146933
0.137772
0.133582
0.139021
0.145753
0.147234
0.143342
0.136993
0.128339
0.1203
0.113003
0.106634
0.101037
0.0958321
0.091029
0.0866637
0.213407
0.191795
0.174048
0.159317
0.147165
0.137592
0.131277
0.130489
0.13092
0.129976
0.12581
0.12048
0.114156
0.108136
0.102599
0.0975573
0.0929544
0.0886221
0.0845702
0.0808503
0.213566
0.192053
0.17436
0.159648
0.147442
0.137581
0.130163
0.126
0.123126
0.120162
0.115888
0.11123
0.105995
0.100953
0.0962653
0.0919159
0.0878879
0.0840718
0.080492
0.0771619
0.213702
0.192273
0.174636
0.159956
0.147728
0.137705
0.129665
0.123868
0.119241
0.115024
0.110465
0.105828
0.101182
0.096463
0.0922696
0.0883196
0.084627
0.0811176
0.077822
0.0747342
0.213848
0.192515
0.174927
0.160261
0.148007
0.137868
0.129489
0.122866
0.117308
0.112339
0.107484
0.102751
0.0983264
0.0939543
0.0899628
0.0861978
0.0826768
0.0793354
0.0762002
0.0732393
0.213972
0.192721
0.175182
0.160541
0.148275
0.138048
0.129476
0.122389
0.116336
0.110934
0.105855
0.101051
0.0966349
0.0923926
0.0885117
0.0848536
0.0814345
0.0781979
0.0751639
0.0722861
0.214087
0.192911
0.175418
0.160802
0.148533
0.138248
0.129553
0.122201
0.115865
0.110195
0.104956
0.100116
0.0956522
0.0914777
0.0876418
0.0840392
0.0806765
0.0774998
0.0745253
0.071693
0.214194
0.193088
0.175637
0.161047
0.148787
0.138456
0.129677
0.122167
0.11565
0.109808
0.104455
0.0995588
0.095067
0.0909053
0.0870866
0.0835193
0.0801891
0.0770485
0.0741111
0.0713107
0.214293
0.193254
0.175843
0.16128
0.149053
0.138669
0.129829
0.122219
0.115579
0.10963
0.104181
0.0992349
0.0947176
0.0905688
0.0867451
0.0832048
0.0798973
0.0767813
0.073869
0.0710887
0.214387
0.19341
0.176037
0.161497
0.14927
0.138867
0.12999
0.122333
0.115609
0.109584
0.104077
0.0991045
0.0945648
0.0904058
0.0865812
0.0830524
0.0797537
0.0766491
0.0737502
0.0709828
0.214475
0.193557
0.176219
0.1617
0.149463
0.139059
0.130162
0.122465
0.115696
0.10962
0.104102
0.0991013
0.0945446
0.0903804
0.0865533
0.0830246
0.079728
0.0766286
0.0737365
0.070976
0.214558
0.193696
0.176392
0.16189
0.149655
0.139249
0.130341
0.122624
0.115834
0.109735
0.1042
0.0991842
0.0946137
0.0904376
0.0866014
0.0830671
0.0797632
0.0766592
0.0737643
0.0710014
0.214612
0.193782
0.176489
0.161987
0.149736
0.139318
0.130389
0.122668
0.115851
0.10974
0.104188
0.0991615
0.0945761
0.0904035
0.0865541
0.0829848
0.0796707
0.0765569
0.0736527
0.0708816
0.232329
0.204152
0.181657
0.161806
0.199888
0.337565
0.224772
0.199001
0.178753
0.162178
0.148887
0.140196
0.165454
0.378832
2.45319
4.07718
4.32142
4.32027
4.0709
3.5677
0.212774
0.190814
0.172945
0.158197
0.146511
0.139536
0.154915
0.238052
3.90143
2.95789
2.88666
2.12241
0.947818
0.909888
0.680617
0.212877
0.19097
0.173094
0.15839
0.146682
0.138962
0.144096
0.173105
0.263293
0.38094
1.04622
0.264382
0.231871
0.20644
0.184073
0.168436
0.155288
0.143164
0.213055
0.191236
0.17339
0.158669
0.146761
0.138323
0.13724
0.155845
0.186688
0.206236
0.209664
0.195925
0.157959
0.144494
0.132719
0.12294
0.11486
0.107794
0.10147
0.0958581
0.213235
0.19152
0.173721
0.158987
0.146934
0.137772
0.133585
0.139002
0.145763
0.147299
0.143415
0.137028
0.128348
0.12036
0.113055
0.106638
0.101004
0.0958142
0.0910233
0.0866597
0.213407
0.191796
0.174048
0.159318
0.147165
0.137595
0.131284
0.130504
0.130957
0.130025
0.125836
0.120468
0.114113
0.108164
0.102628
0.0975628
0.0929423
0.0886169
0.0845751
0.0808535
0.213566
0.192053
0.174361
0.159648
0.147443
0.137586
0.130166
0.126006
0.123137
0.120176
0.115895
0.111229
0.105981
0.100972
0.0962772
0.0919118
0.0878754
0.0840663
0.0804928
0.077163
0.213705
0.192278
0.174638
0.159954
0.147725
0.137705
0.129665
0.123868
0.119243
0.115025
0.110467
0.105824
0.101177
0.0964677
0.0922729
0.0883181
0.0846226
0.0811162
0.0778232
0.0747348
0.213848
0.192515
0.174927
0.16026
0.148006
0.137868
0.12949
0.122866
0.117307
0.112339
0.107485
0.102745
0.0983233
0.0939588
0.0899676
0.0861987
0.0826749
0.079335
0.0762007
0.073239
0.213972
0.192721
0.175182
0.160541
0.148274
0.138048
0.129477
0.12239
0.116336
0.110933
0.105856
0.10105
0.0966315
0.0923914
0.0885124
0.084854
0.0814339
0.0781978
0.075164
0.0722857
0.214087
0.192911
0.175418
0.160802
0.148533
0.138249
0.129553
0.1222
0.115864
0.110195
0.104957
0.100116
0.0956509
0.0914743
0.0876434
0.0840415
0.0806771
0.0774998
0.0745248
0.0716924
0.214194
0.193088
0.175638
0.161047
0.148787
0.138457
0.129677
0.122167
0.115649
0.109808
0.104456
0.0995592
0.0950664
0.0909033
0.0870876
0.0835205
0.0801895
0.0770485
0.0741106
0.0713102
0.214293
0.193254
0.175843
0.16128
0.149052
0.138669
0.129829
0.122219
0.115579
0.109631
0.104182
0.0992359
0.0947171
0.0905643
0.0867467
0.0832067
0.0798979
0.0767812
0.0738685
0.0710882
0.214387
0.19341
0.176037
0.161498
0.149271
0.138867
0.12999
0.122332
0.115609
0.109585
0.104078
0.0991047
0.0945646
0.0904039
0.0865827
0.0830534
0.0797541
0.0766492
0.0737498
0.0709823
0.214475
0.193557
0.17622
0.1617
0.149464
0.139059
0.130162
0.122464
0.115696
0.10962
0.104102
0.0991015
0.0945448
0.0903787
0.0865543
0.0830252
0.0797283
0.0766288
0.0737363
0.0709757
0.214558
0.193696
0.176392
0.16189
0.149655
0.139249
0.130341
0.122624
0.115834
0.109735
0.1042
0.0991843
0.0946139
0.0904357
0.0866025
0.0830678
0.0797636
0.0766594
0.0737641
0.0710011
0.214612
0.193782
0.176489
0.161988
0.149736
0.139318
0.130389
0.122668
0.115852
0.10974
0.104188
0.0991617
0.0945764
0.0904053
0.0865553
0.0829843
0.0796698
0.076556
0.073652
0.0708813
0.23233
0.204232
0.182208
0.162046
0.19884
0.337532
0.224772
0.199001
0.178753
0.162165
0.14865
0.139721
0.163649
0.391079
2.40175
3.93634
4.25122
4.30136
4.11654
3.5862
0.212773
0.190811
0.172941
0.158193
0.146502
0.139509
0.154375
0.234983
4.11158
2.78306
2.87311
2.18688
0.955276
0.909208
0.676318
0.212877
0.19097
0.173093
0.158389
0.146681
0.138959
0.14389
0.171665
0.256808
0.371931
1.14207
0.26633
0.228935
0.203044
0.181754
0.167206
0.154767
0.142881
0.213055
0.191236
0.17339
0.158669
0.146761
0.138322
0.137193
0.15542
0.185278
0.204662
0.208551
0.195218
0.157916
0.144563
0.132812
0.122989
0.114842
0.107777
0.101465
0.0958544
0.213236
0.19152
0.173721
0.158987
0.146934
0.137771
0.13358
0.138935
0.145696
0.14729
0.143458
0.13705
0.128349
0.120406
0.113105
0.106654
0.100984
0.0957975
0.0910146
0.0866544
0.213407
0.191796
0.174048
0.159319
0.147166
0.137597
0.131289
0.130508
0.130975
0.130061
0.125865
0.120462
0.114082
0.108174
0.102648
0.0975705
0.0929353
0.088611
0.0845769
0.0808558
0.213566
0.192054
0.174361
0.159649
0.147443
0.13759
0.130169
0.12601
0.123147
0.120189
0.115906
0.111229
0.105972
0.100984
0.0962886
0.091911
0.0878661
0.0840595
0.0804914
0.0771631
0.213708
0.192281
0.17464
0.159954
0.147723
0.137704
0.129665
0.123869
0.119245
0.115025
0.11047
0.105823
0.101172
0.0964699
0.0922758
0.0883178
0.0846195
0.0811145
0.0778235
0.074735
0.213848
0.192515
0.174927
0.16026
0.148006
0.137868
0.12949
0.122866
0.117307
0.112337
0.107486
0.102741
0.0983197
0.0939613
0.0899718
0.0862002
0.0826738
0.0793344
0.0762009
0.0732388
0.213972
0.192721
0.175182
0.160541
0.148274
0.138048
0.129477
0.12239
0.116336
0.110933
0.105857
0.10105
0.0966288
0.0923899
0.0885125
0.0848543
0.0814335
0.0781976
0.075164
0.0722854
0.214087
0.192911
0.175418
0.160802
0.148533
0.138249
0.129553
0.1222
0.115862
0.110194
0.104958
0.100116
0.09565
0.0914718
0.087644
0.0840432
0.0806779
0.0775001
0.0745246
0.0716919
0.214194
0.193088
0.175638
0.161047
0.148788
0.138457
0.129677
0.122166
0.115648
0.109808
0.104457
0.0995596
0.0950659
0.0909018
0.087088
0.0835215
0.08019
0.0770486
0.0741104
0.0713097
0.214293
0.193254
0.175844
0.16128
0.149052
0.138669
0.129829
0.122219
0.115579
0.109631
0.104182
0.0992368
0.0947171
0.0905612
0.0867469
0.0832081
0.0798987
0.0767814
0.0738682
0.0710877
0.214387
0.19341
0.176037
0.161498
0.149272
0.138867
0.129989
0.122331
0.115608
0.109585
0.104078
0.099105
0.0945645
0.0904024
0.0865833
0.0830542
0.0797545
0.0766494
0.0737497
0.0709819
0.214475
0.193557
0.17622
0.1617
0.149465
0.13906
0.130161
0.122464
0.115695
0.10962
0.104103
0.0991018
0.094545
0.0903775
0.0865548
0.0830257
0.0797286
0.076629
0.0737363
0.0709755
0.214558
0.193696
0.176392
0.161891
0.149656
0.13925
0.130341
0.122623
0.115834
0.109735
0.104201
0.0991845
0.0946142
0.0904345
0.0866029
0.0830685
0.0797641
0.0766596
0.073764
0.0710009
0.214612
0.193782
0.176489
0.161988
0.149737
0.139318
0.130389
0.122668
0.115852
0.109741
0.104188
0.0991618
0.0945767
0.0904066
0.0865565
0.0829842
0.0796691
0.0765552
0.0736513
0.070881
0.232331
0.204275
0.182675
0.162759
0.199736
0.341212
0.224772
0.199
0.178754
0.162161
0.148461
0.139237
0.162305
0.40701
2.38743
3.79965
4.17612
4.27975
4.14228
3.60289
0.212772
0.190808
0.172939
0.15819
0.146493
0.139474
0.154027
0.234242
4.27186
2.63453
2.81304
2.24121
0.965818
0.912512
0.673224
0.212877
0.19097
0.173093
0.158389
0.14668
0.138954
0.143716
0.17061
0.25218
0.370452
1.25292
0.271809
0.228394
0.200617
0.179548
0.165837
0.15407
0.142503
0.213055
0.191236
0.173391
0.158669
0.146761
0.138322
0.137141
0.154959
0.183782
0.202802
0.207223
0.194479
0.157833
0.144601
0.132878
0.123029
0.114829
0.107755
0.101453
0.0958467
0.213236
0.191521
0.173721
0.158987
0.146934
0.137771
0.133571
0.138831
0.145554
0.147202
0.143464
0.137058
0.12834
0.120436
0.113151
0.106677
0.100975
0.0957848
0.091005
0.0866478
0.213407
0.191796
0.174049
0.15932
0.147167
0.137598
0.131291
0.1305
0.130972
0.130078
0.12589
0.120463
0.114061
0.108177
0.102662
0.0975775
0.0929311
0.0886056
0.0845766
0.0808569
0.213566
0.192054
0.174361
0.159649
0.147444
0.137592
0.130172
0.126013
0.123154
0.1202
0.115919
0.11123
0.105965
0.100994
0.0962991
0.0919125
0.0878595
0.0840528
0.0804883
0.077162
0.213709
0.192284
0.174643
0.159954
0.147722
0.137704
0.129665
0.12387
0.119247
0.115025
0.110474
0.105824
0.101168
0.0964704
0.092278
0.088318
0.0846174
0.0811129
0.0778232
0.0747349
0.213848
0.192515
0.174927
0.16026
0.148005
0.137868
0.12949
0.122866
0.117306
0.112336
0.107487
0.102738
0.098316
0.0939623
0.089975
0.0862019
0.0826732
0.0793338
0.0762009
0.0732386
0.213972
0.192721
0.175182
0.160541
0.148275
0.138048
0.129477
0.122391
0.116336
0.110932
0.105857
0.10105
0.0966266
0.0923882
0.0885122
0.0848544
0.0814332
0.0781974
0.0751639
0.0722852
0.214087
0.192911
0.175418
0.160802
0.148533
0.138249
0.129554
0.1222
0.115862
0.110193
0.104959
0.100117
0.0956493
0.0914699
0.0876441
0.0840444
0.0806787
0.0775004