/*--------------------------------*- C++ -*----------------------------------*\
  =========                 |
  \\      /  F ield         | OpenFOAM: The Open Source CFD Toolbox
   \\    /   O peration     | Website:  https://openfoam.org
    \\  /    A nd           | Version:  10
     \\/     M anipulation  |
\*---------------------------------------------------------------------------*/
FoamFile
{
    format      ascii;
    class       volScalarField;
    location    "2000";
    object      nut;
}
// * * * * * * * * * * * * * * * * * * * * * * * * * * * * * * * * * * * * * //

dimensions      [0 2 -1 0 0 0 0];

internalField   nonuniform List<scalar> 
55398
(
0.133773
0.11291
0.0891354
0.0631035
0.0661946
0.0786537
0.134367
0.13338
0.132632
0.131376
0.125435
0.115903
0.0993625
0.111278
0.255985
0.63833
0.767358
0.886158
1.0261
1.08646
0.133838
0.132952
0.132285
0.131843
0.13174
0.131061
0.125147
0.122802
0.204546
0.609727
0.570514
0.57129
0.568455
0.488518
0.457535
0.133777
0.132861
0.132132
0.131655
0.131657
0.132538
0.132902
0.132009
0.118551
0.0589703
0.145041
0.143908
0.134009
0.132899
0.132984
0.137873
0.138193
0.143438
0.133744
0.132793
0.13201
0.131454
0.131304
0.132175
0.134259
0.13881
0.136877
0.124367
0.114458
0.118664
0.127829
0.134254
0.135532
0.13606
0.136106
0.136164
0.136097
0.136015
0.133725
0.132751
0.131929
0.131303
0.131003
0.131465
0.133463
0.137347
0.140038
0.139887
0.140704
0.141626
0.14166
0.141385
0.140933
0.140503
0.140103
0.139443
0.13894
0.138425
0.133714
0.132725
0.131876
0.131196
0.130778
0.1309
0.132089
0.135055
0.137521
0.138969
0.13989
0.139951
0.139632
0.138911
0.138265
0.137743
0.137282
0.136576
0.136032
0.135503
0.133707
0.132708
0.131839
0.131123
0.130619
0.130488
0.131085
0.132813
0.13454
0.13581
0.136366
0.136425
0.13612
0.135451
0.134879
0.134364
0.133935
0.133314
0.132823
0.132332
0.133698
0.132694
0.131814
0.131071
0.130505
0.130205
0.130375
0.131238
0.132209
0.132957
0.133226
0.133153
0.132809
0.13226
0.131778
0.131368
0.130998
0.130504
0.130087
0.129664
0.1337
0.132688
0.131795
0.131029
0.13042
0.13002
0.129928
0.13026
0.130684
0.130962
0.130978
0.130817
0.130497
0.130041
0.129639
0.129277
0.128943
0.128524
0.12816
0.127795
0.133698
0.132682
0.131781
0.131
0.130358
0.129889
0.129637
0.129647
0.129721
0.129704
0.129535
0.129278
0.12895
0.12853
0.128154
0.127811
0.127507
0.12714
0.126816
0.126475
0.133697
0.132678
0.131771
0.130978
0.130312
0.129795
0.129444
0.12926
0.129121
0.128925
0.128634
0.128288
0.127933
0.127558
0.127196
0.126868
0.126571
0.126232
0.125928
0.125593
0.133697
0.132676
0.131764
0.130961
0.130277
0.129725
0.129308
0.129009
0.128744
0.12843
0.128056
0.127661
0.127278
0.126901
0.126543
0.126215
0.125916
0.125595
0.125304
0.124979
0.133697
0.132674
0.131759
0.130949
0.130255
0.129674
0.129212
0.128842
0.128495
0.128112
0.127673
0.127239
0.126833
0.12645
0.126095
0.125772
0.125473
0.125164
0.124881
0.124561
0.133697
0.132674
0.131755
0.130941
0.130235
0.129638
0.129144
0.128734
0.128333
0.127906
0.127428
0.126969
0.126546
0.126159
0.125804
0.125479
0.125178
0.124873
0.124595
0.12428
0.133698
0.132674
0.131754
0.130935
0.13022
0.129611
0.129098
0.128656
0.128227
0.127769
0.127287
0.126815
0.126381
0.125989
0.125633
0.125305
0.125003
0.1247
0.124424
0.124112
0.133699
0.132675
0.131753
0.130931
0.130211
0.129593
0.129067
0.128607
0.128164
0.127695
0.127203
0.126725
0.126284
0.125885
0.125523
0.125191
0.124882
0.124574
0.124293
0.123978
0.133691
0.132658
0.131724
0.130889
0.130153
0.129517
0.12897
0.128495
0.128028
0.127546
0.127035
0.126546
0.126091
0.12568
0.125306
0.124956
0.124629
0.124305
0.124007
0.123677
0.134073
0.119684
0.099985
0.068979
0.0614676
0.0718375
0.134365
0.133379
0.132651
0.131663
0.126888
0.118339
0.100622
0.0984532
0.395241
0.655174
0.742452
0.830201
0.98921
0.860574
0.133836
0.132951
0.132285
0.131846
0.131782
0.131512
0.126846
0.124305
0.151435
0.600307
0.591322
0.561546
0.452241
0.486787
0.432099
0.133777
0.132861
0.13213
0.131649
0.131655
0.1326
0.133633
0.13268
0.0990128
0.0599298
0.138293
0.133038
0.1342
0.133772
0.133543
0.137312
0.138556
0.142278
0.133744
0.132792
0.132008
0.131448
0.131295
0.132154
0.134347
0.13901
0.137223
0.126287
0.118894
0.119082
0.130811
0.133719
0.135474
0.136171
0.136341
0.136398
0.13634
0.136239
0.133725
0.132751
0.131928
0.131299
0.130996
0.131431
0.133402
0.13721
0.140032
0.139972
0.141013
0.141625
0.141606
0.141224
0.140781
0.140429
0.140051
0.139372
0.138794
0.138188
0.133714
0.132725
0.131875
0.131194
0.130772
0.130875
0.131996
0.134911
0.137362
0.138899
0.139808
0.139908
0.139622
0.138888
0.138254
0.137683
0.137203
0.136528
0.135902
0.135265
0.133707
0.132708
0.131839
0.131121
0.130616
0.130473
0.131013
0.13269
0.13439
0.13569
0.136263
0.13636
0.136098
0.135432
0.134856
0.134315
0.133868
0.133273
0.132724
0.132153
0.1337
0.132694
0.131813
0.131069
0.130503
0.130203
0.130363
0.131172
0.132112
0.132868
0.133143
0.133092
0.132768
0.132245
0.131771
0.131335
0.130955
0.130476
0.130024
0.12955
0.1337
0.132688
0.131795
0.131029
0.130419
0.130019
0.129923
0.130222
0.130625
0.130911
0.130926
0.130772
0.130468
0.130034
0.129633
0.129256
0.128915
0.128506
0.128121
0.127716
0.133698
0.132682
0.131781
0.130999
0.130357
0.129889
0.129635
0.129627
0.129689
0.129676
0.129505
0.129233
0.128916
0.128523
0.128152
0.127801
0.127489
0.12713
0.126794
0.126428
0.133697
0.132678
0.131771
0.130977
0.130311
0.129793
0.129441
0.129251
0.12911
0.12891
0.128618
0.128266
0.127913
0.127557
0.127188
0.126861
0.12656
0.126226
0.125914
0.125566
0.133697
0.132676
0.131764
0.130961
0.130277
0.129724
0.129306
0.129005
0.128738
0.128422
0.128047
0.127648
0.127265
0.126899
0.126543
0.126213
0.12591
0.125592
0.125297
0.124963
0.133697
0.132674
0.131759
0.130949
0.130255
0.129674
0.129212
0.12884
0.128492
0.128109
0.127668
0.127232
0.12683
0.126451
0.126096
0.12577
0.12547
0.125162
0.124877
0.124552
0.133697
0.132674
0.131755
0.130941
0.130235
0.129638
0.129144
0.128734
0.128332
0.127904
0.127425
0.126967
0.126544
0.126159
0.125805
0.125478
0.125176
0.124872
0.124593
0.124275
0.133698
0.132674
0.131754
0.130935
0.13022
0.129612
0.129098
0.128656
0.128226
0.127768
0.127286
0.126814
0.12638
0.125989
0.125633
0.125305
0.125002
0.124699
0.124423
0.12411
0.133699
0.132675
0.131753
0.130931
0.130211
0.129593
0.129068
0.128607
0.128164
0.127694
0.127202
0.126724
0.126283
0.125885
0.125523
0.12519
0.124882
0.124574
0.124292
0.123976
0.133691
0.132658
0.131724
0.130889
0.130153
0.129517
0.12897
0.128495
0.128028
0.127545
0.127035
0.126546
0.126091
0.125679
0.125306
0.124955
0.124629
0.124305
0.124007
0.123677
0.134257
0.122886
0.103865
0.075439
0.058834
0.0672318
0.134365
0.133383
0.132659
0.13158
0.126797
0.118829
0.101193
0.107462
0.43642
0.702388
0.733385
0.748743
0.951543
0.855628
0.133835
0.13295
0.132285
0.131846
0.131783
0.131619
0.126772
0.126814
0.170868
0.599678
0.606647
0.565621
0.440267
0.465998
0.427198
0.133777
0.132861
0.13213
0.13165
0.131657
0.132609
0.133537
0.133307
0.102458
0.0755147
0.122677
0.129789
0.133111
0.134019
0.133993
0.137035
0.138783
0.14171
0.133744
0.132792
0.132008
0.131449
0.131296
0.13215
0.134353
0.139032
0.136876
0.125561
0.118866
0.120403
0.130855
0.133479
0.135171
0.136101
0.136486
0.136565
0.136479
0.13632
0.133725
0.132751
0.131928
0.131299
0.130996
0.131425
0.133417
0.137228
0.139951
0.139822
0.140943
0.141611
0.141501
0.14104
0.140699
0.140389
0.139998
0.139317
0.138753
0.138171
0.133714
0.132725
0.131875
0.131195
0.130773
0.130872
0.132014
0.134918
0.137362
0.138868
0.13978
0.139925
0.139636
0.138826
0.138218
0.137673
0.137141
0.136414
0.135784
0.135228
0.133707
0.132707
0.131839
0.131121
0.130616
0.130473
0.131021
0.132691
0.134395
0.135681
0.136253
0.136357
0.136098
0.135391
0.134823
0.134307
0.133814
0.133181
0.132634
0.132127
0.133701
0.132694
0.131812
0.131068
0.130503
0.130204
0.130361
0.131175
0.132118
0.132867
0.133134
0.133088
0.132782
0.132223
0.131754
0.131329
0.13092
0.130415
0.129966
0.129533
0.1337
0.132688
0.131795
0.131029
0.130419
0.130019
0.129923
0.130224
0.130625
0.130912
0.130922
0.130742
0.130454
0.130014
0.129621
0.129251
0.128893
0.128467
0.128084
0.127702
0.133698
0.132682
0.131781
0.130999
0.130357
0.129889
0.129635
0.129628
0.129689
0.129677
0.129503
0.129221
0.128917
0.128513
0.128146
0.127801
0.127476
0.127108
0.126772
0.12642
0.133697
0.132678
0.131771
0.130977
0.130311
0.129793
0.129441
0.129252
0.12911
0.128911
0.128616
0.128261
0.127916
0.127541
0.127173
0.126856
0.12655
0.126212
0.125901
0.125561
0.133697
0.132676
0.131764
0.130961
0.130277
0.129724
0.129307
0.129005
0.128738
0.128423
0.128047
0.127645
0.127267
0.126889
0.126532
0.126208
0.125905
0.125583
0.125289
0.12496
0.133697
0.132674
0.131759
0.130949
0.130254
0.129675
0.129212
0.12884
0.128493
0.128109
0.127667
0.127231
0.126829
0.126451
0.126093
0.125768
0.125468
0.125157
0.124873
0.124551
0.133697
0.132674
0.131756
0.130941
0.130235
0.129638
0.129144
0.128734
0.128332
0.127904
0.127425
0.126966
0.126544
0.126158
0.125804
0.125477
0.125175
0.124869
0.124591
0.124274
0.133698
0.132674
0.131754
0.130935
0.130221
0.129612
0.129098
0.128656
0.128226
0.127768
0.127286
0.126814
0.12638
0.125989
0.125633
0.125305
0.125002
0.124698
0.124422
0.124109
0.133699
0.132675
0.131753
0.130931
0.130211
0.129593
0.129068
0.128607
0.128164
0.127694
0.127202
0.126724
0.126283
0.125885
0.125522
0.125189
0.124881
0.124572
0.124291
0.123975
0.133691
0.132658
0.131724
0.130889
0.130153
0.129517
0.12897
0.128495
0.128028
0.127545
0.127035
0.126545
0.126091
0.125679
0.125306
0.124955
0.124629
0.124305
0.124007
0.123677
0.13434
0.125828
0.1067
0.0800998
0.0550164
0.0652268
0.134366
0.133387
0.132665
0.131474
0.126339
0.118783
0.100639
0.104943
0.442193
0.743968
0.743474
0.757214
0.963433
0.835653
0.133835
0.13295
0.132284
0.131845
0.131782
0.131695
0.126668
0.125704
0.160871
0.599926
0.621644
0.575002
0.43668
0.455913
0.424301
0.133777
0.132861
0.132131
0.13165
0.131658
0.132619
0.133452
0.133563
0.0979258
0.08298
0.107393
0.125448
0.130973
0.133519
0.134142
0.136882
0.138968
0.141391
0.133744
0.132792
0.132008
0.131449
0.131297
0.132148
0.134346
0.139158
0.137532
0.125662
0.118369
0.121016
0.130627
0.132848
0.134714
0.135914
0.136497
0.136607
0.13656
0.13639
0.133725
0.132751
0.131928
0.131299
0.130997
0.131421
0.133427
0.13726
0.1399
0.139674
0.140834
0.141574
0.141479
0.14102
0.140653
0.140345
0.139979
0.139356
0.138768
0.138177
0.133714
0.132725
0.131875
0.131195
0.130773
0.130869
0.13203
0.134929
0.137359
0.138834
0.139747
0.139933
0.139508
0.138696
0.138184
0.137657
0.137127
0.136444
0.135798
0.135219
0.133707
0.132707
0.131839
0.131121
0.130616
0.130473
0.131027
0.132695
0.134399
0.135674
0.136245
0.136365
0.135978
0.135279
0.134792
0.134292
0.1338
0.133202
0.132643
0.132122
0.133701
0.132694
0.131812
0.131068
0.130503
0.130205
0.13036
0.131178
0.132124
0.132868
0.133131
0.133084
0.132749
0.132179
0.131747
0.131324
0.130912
0.130426
0.129971
0.12953
0.1337
0.132688
0.131795
0.131029
0.130419
0.130019
0.129923
0.130225
0.130626
0.130913
0.130922
0.13074
0.13044
0.129988
0.129616
0.129248
0.128887
0.128475
0.128087
0.127696
0.133698
0.132682
0.131781
0.130999
0.130357
0.129889
0.129635
0.129629
0.12969
0.129679
0.129504
0.129215
0.128905
0.128497
0.128144
0.1278
0.127473
0.127112
0.126774
0.126416
0.133697
0.132678
0.131771
0.130978
0.130311
0.129794
0.129441
0.129252
0.12911
0.128912
0.128617
0.12826
0.127909
0.127528
0.127177
0.126854
0.126547
0.126214
0.125902
0.125559
0.133697
0.132676
0.131764
0.130961
0.130277
0.129724
0.129307
0.129005
0.128738
0.128423
0.128047
0.127644
0.127262
0.126881
0.126534
0.126208
0.125903
0.125584
0.125289
0.124959
0.133697
0.132674
0.131759
0.130949
0.130254
0.129675
0.129212
0.12884
0.128493
0.12811
0.127667
0.12723
0.126825
0.126444
0.126088
0.125767
0.125467
0.125157
0.124873
0.12455
0.133697
0.132674
0.131756
0.130941
0.130235
0.129638
0.129144
0.128734
0.128332
0.127904
0.127425
0.126966
0.126542
0.126154
0.1258
0.125477
0.125175
0.12487
0.12459
0.124274
0.133698
0.132674
0.131754
0.130935
0.130221
0.129612
0.129098
0.128656
0.128226
0.127768
0.127286
0.126814
0.126379
0.125987
0.12563
0.125304
0.125002
0.124698
0.124422
0.124109
0.133699
0.132675
0.131753
0.130931
0.130211
0.129593
0.129068
0.128607
0.128164
0.127694
0.127202
0.126724
0.126282
0.125883
0.12552
0.125189
0.124881
0.124572
0.124291
0.123975
0.133691
0.132658
0.131725
0.130889
0.130153
0.129517
0.12897
0.128495
0.128028
0.127545
0.127035
0.126545
0.126091
0.125679
0.125305
0.124955
0.124629
0.124305
0.124007
0.123677
0.134372
0.128273
0.110099
0.0845619
0.0518815
0.063431
0.134366
0.133389
0.132672
0.131438
0.125884
0.11866
0.100288
0.094796
0.446642
0.765053
0.759854
0.762612
0.965034
0.816277
0.133835
0.13295
0.132283
0.131843
0.131777
0.131751
0.126628
0.124151
0.15789
0.58866
0.634936
0.586311
0.434497
0.449629
0.42161
0.133777
0.132861
0.132131
0.13165
0.131658
0.132629
0.133399
0.133502
0.0951232
0.0810306
0.103511
0.120928
0.1281
0.132285
0.133895
0.136716
0.139075
0.141193
0.133744
0.132792
0.132008
0.131449
0.131298
0.132148
0.134335
0.139364
0.138847
0.12692
0.118839
0.121307
0.130472
0.132409
0.134272
0.135651
0.136429
0.136624
0.136621
0.136456
0.133726
0.132751
0.131928
0.1313
0.130998
0.131419
0.133432
0.137311
0.139932
0.139602
0.140732
0.141515
0.141455
0.141006
0.140614
0.140299
0.139951
0.139377
0.138784
0.138185
0.133714
0.132725
0.131875
0.131195
0.130774
0.130867
0.132041
0.134945
0.137364
0.138804
0.139708
0.139918
0.139482
0.138771
0.138182
0.137644
0.137112
0.136462
0.135815
0.135218
0.133707
0.132708
0.131839
0.131121
0.130616
0.130472
0.131032
0.1327
0.134402
0.135667
0.136235
0.136367
0.135957
0.135331
0.134784
0.134279
0.133786
0.133213
0.132654
0.132122
0.133702
0.132695
0.131812
0.131067
0.130503
0.130205
0.13036
0.13118
0.132127
0.132869
0.13313
0.133079
0.132745
0.132192
0.131745
0.13132
0.130905
0.130434
0.129977
0.129529
0.1337
0.132688
0.131795
0.131029
0.130419
0.13002
0.129923
0.130226
0.130628
0.130915
0.130922
0.130738
0.130442
0.129998
0.129615
0.129245
0.128883
0.128479
0.128091
0.127693
0.133698
0.132682
0.131781
0.130999
0.130357
0.129889
0.129635
0.12963
0.129691
0.12968
0.129504
0.129211
0.128902
0.1285
0.128144
0.1278
0.127471
0.127114
0.126776
0.126415
0.133697
0.132678
0.131771
0.130978
0.130311
0.129794
0.129441
0.129252
0.12911
0.128913
0.128617
0.128258
0.127907
0.127528
0.12718
0.126853
0.126544
0.126215
0.125903
0.125558
0.133697
0.132676
0.131764
0.130961
0.130277
0.129724
0.129307
0.129006
0.128738
0.128424
0.128047
0.127643
0.12726
0.126881
0.126535
0.126208
0.125902
0.125585
0.125289
0.124958
0.133697
0.132674
0.131759
0.130949
0.130254
0.129675
0.129212
0.12884
0.128493
0.12811
0.127668
0.127229
0.126823
0.126442
0.12609
0.125767
0.125466
0.125158
0.124873
0.12455
0.133697
0.132674
0.131756
0.130941
0.130235
0.129638
0.129144
0.128734
0.128332
0.127905
0.127425
0.126966
0.126542
0.126154
0.125801
0.125477
0.125175
0.12487
0.12459
0.124274
0.133698
0.132674
0.131754
0.130935
0.130221
0.129611
0.129098
0.128656
0.128227
0.127768
0.127286
0.126814
0.126379
0.125986
0.12563
0.125304
0.125002
0.124699
0.124422
0.124109
0.133699
0.132675
0.131753
0.130931
0.130211
0.129593
0.129068
0.128607
0.128165
0.127694
0.127202
0.126723
0.126282
0.125883
0.12552
0.125189
0.124881
0.124573
0.124291
0.123975
0.133691
0.132658
0.131725
0.130889
0.130153
0.129517
0.12897
0.128495
0.128028
0.127546
0.127035
0.126545
0.12609
0.125679
0.125305
0.124954
0.124629
0.124305
0.124007
0.123677
0.134383
0.129929
0.113704
0.0885451
0.0497716
0.0616079
0.134366
0.133391
0.13268
0.131456
0.125525
0.118465
0.100002
0.0923354
0.449093
0.768843
0.783243
0.767881
0.97236
0.804562
0.133835
0.13295
0.132283
0.131841
0.131769
0.131788
0.126591
0.122917
0.163709
0.565867
0.645007
0.59917
0.43383
0.445622
0.419058
0.133777
0.132861
0.13213
0.13165
0.131657
0.132639
0.133366
0.133261
0.0924824
0.079863
0.110899
0.11738
0.125067
0.13051
0.133214
0.136409
0.139075
0.141047
0.133744
0.132792
0.132008
0.131449
0.131298
0.132148
0.134325
0.139561
0.140158
0.128698
0.120106
0.121737
0.130401
0.132115
0.133886
0.135353
0.136296
0.136604
0.136659
0.136513
0.133726
0.132751
0.131928
0.1313
0.130998
0.131416
0.133434
0.137372
0.140048
0.139647
0.140678
0.141451
0.141424
0.140996
0.140583
0.140254
0.139918
0.139381
0.138796
0.138193
0.133714
0.132725
0.131875
0.131196
0.130774
0.130865
0.132048
0.134963
0.137382
0.138791
0.139673
0.139887
0.139452
0.138809
0.13819
0.137636
0.137099
0.136471
0.135829
0.13522
0.133707
0.132708
0.131839
0.131121
0.130617
0.130471
0.131036
0.132705
0.134406
0.135663
0.136224
0.136364
0.135942
0.135359
0.134786
0.134269
0.133772
0.133217
0.132662
0.132123
0.133702
0.132695
0.131812
0.131067
0.130502
0.130205
0.130359
0.131181
0.132129
0.132869
0.133129
0.133075
0.13274
0.132199
0.131747
0.131317
0.130899
0.130437
0.129982
0.129529
0.1337
0.132688
0.131795
0.131029
0.130419
0.13002
0.129922
0.130227
0.130628
0.130916
0.130922
0.130735
0.130443
0.130004
0.129616
0.129243
0.128879
0.128481
0.128094
0.127692
0.133698
0.132682
0.131781
0.130999
0.130357
0.129889
0.129635
0.12963
0.129691
0.129681
0.129505
0.129208
0.128898
0.128501
0.128144
0.127799
0.127469
0.127116
0.126777
0.126414
0.133697
0.132678
0.131771
0.130978
0.130311
0.129794
0.129441
0.129252
0.12911
0.128913
0.128617
0.128257
0.127906
0.127528
0.127182
0.126853
0.126543
0.126215
0.125904
0.125558
0.133697
0.132676
0.131764
0.130961
0.130277
0.129724
0.129307
0.129006
0.128738
0.128424
0.128047
0.127642
0.127259
0.12688
0.126535
0.126208
0.125901
0.125585
0.12529
0.124958
0.133697
0.132674
0.131759
0.130949
0.130254
0.129675
0.129212
0.12884
0.128493
0.128111
0.127668
0.127229
0.126822
0.12644
0.126091
0.125768
0.125466
0.125158
0.124873
0.124549
0.133697
0.132674
0.131756
0.130941
0.130235
0.129638
0.129144
0.128734
0.128332
0.127905
0.127425
0.126965
0.126541
0.126153
0.125801
0.125477
0.125175
0.12487
0.12459
0.124273
0.133698
0.132674
0.131754
0.130935
0.130221
0.129611
0.129098
0.128656
0.128227
0.127769
0.127286
0.126813
0.126379
0.125985
0.12563
0.125304
0.125002
0.124699
0.124422
0.124109
0.133699
0.132675
0.131753
0.130931
0.130211
0.129593
0.129068
0.128607
0.128165
0.127694
0.127202
0.126723
0.126282
0.125882
0.12552
0.125189
0.124881
0.124573
0.124291
0.123975
0.133691
0.132658
0.131725
0.130889
0.130153
0.129517
0.12897
0.128495
0.128029
0.127546
0.127035
0.126545
0.12609
0.125679
0.125305
0.124954
0.124629
0.124305
0.124007
0.123677
0.134387
0.130901
0.117075
0.092186
0.0485106
0.0601873
0.134366
0.133393
0.132686
0.131508
0.125318
0.11824
0.0997231
0.093774
0.451286
0.770564
0.813391
0.776949
0.955723
0.800257
0.133835
0.13295
0.132282
0.131839
0.131759
0.131808
0.126521
0.12171
0.177138
0.535226
0.649696
0.612601
0.434656
0.443521
0.416745
0.133777
0.132861
0.13213
0.13165
0.131656
0.132648
0.13334
0.132959
0.0889786
0.081033
0.119885
0.1154
0.122419
0.128487
0.132161
0.135901
0.138939
0.1409
0.133744
0.132792
0.132008
0.131449
0.131299
0.132148
0.134314
0.139692
0.141075
0.130486
0.121655
0.12248
0.130432
0.131946
0.133578
0.135052
0.136116
0.136544
0.136669
0.136554
0.133726
0.132751
0.131928
0.1313
0.130999
0.131414
0.133433
0.137429
0.140217
0.139809
0.1407
0.141406
0.141388
0.140988
0.14056
0.140214
0.139881
0.139373
0.138801
0.1382
0.133714
0.132725
0.131875
0.131196
0.130774
0.130863
0.132052
0.134981
0.137415
0.138802
0.139651
0.139851
0.139418
0.138826
0.138199
0.137632
0.137088
0.136473
0.135839
0.135224
0.133707
0.132708
0.131839
0.131121
0.130617
0.13047
0.131038
0.13271
0.134412
0.135662
0.136216
0.136358
0.13593
0.135376
0.134792
0.134263
0.133761
0.133217
0.132667
0.132125
0.133702
0.132695
0.131812
0.131067
0.130502
0.130205
0.130359
0.131182
0.132131
0.132869
0.133129
0.133072
0.132734
0.132204
0.131749
0.131316
0.130895
0.130438
0.129985
0.12953
0.1337
0.132688
0.131795
0.131028
0.130419
0.13002
0.129922
0.130227
0.130628
0.130916
0.130923
0.130733
0.130443
0.130009
0.129618
0.129241
0.128876
0.128481
0.128096
0.127692
0.133698
0.132682
0.131781
0.130999
0.130357
0.129889
0.129635
0.12963
0.129691
0.129681
0.129506
0.129206
0.128895
0.128502
0.128144
0.127799
0.127468
0.127116
0.126779
0.126414
0.133697
0.132678
0.131771
0.130978
0.130311
0.129794
0.129441
0.129252
0.12911
0.128914
0.128618
0.128256
0.127905
0.127528
0.127183
0.126854
0.126541
0.126214
0.125904
0.125557
0.133697
0.132676
0.131764
0.130961
0.130277
0.129724
0.129307
0.129006
0.128738
0.128425
0.128048
0.127642
0.127258
0.126879
0.126536
0.126209
0.125901
0.125585
0.12529
0.124957
0.133697
0.132674
0.131759
0.13095
0.130254
0.129675
0.129212
0.12884
0.128493
0.128111
0.127669
0.127229
0.126821
0.126438
0.126092
0.125768
0.125466
0.125158
0.124873
0.124549
0.133697
0.132674
0.131756
0.130941
0.130235
0.129638
0.129144
0.128734
0.128332
0.127905
0.127425
0.126965
0.126541
0.126152
0.125802
0.125477
0.125175
0.12487
0.12459
0.124273
0.133698
0.132674
0.131754
0.130935
0.130221
0.129611
0.129098
0.128656
0.128227
0.127769
0.127286
0.126813
0.126379
0.125985
0.125631
0.125304
0.125002
0.124699
0.124422
0.124109
0.133699
0.132675
0.131753
0.130931
0.130211
0.129593
0.129068
0.128607
0.128165
0.127695
0.127202
0.126723
0.126282
0.125881
0.12552
0.12519
0.124881
0.124573
0.124291
0.123975
0.133691
0.132658
0.131725
0.130889
0.130153
0.129517
0.12897
0.128495
0.128029
0.127546
0.127035
0.126545
0.12609
0.125679
0.125305
0.124954
0.124629
0.124305
0.124007
0.123677
0.134388
0.131413
0.119888
0.0955356
0.0479371
0.0593529
0.134366
0.133394
0.132692
0.131576
0.125265
0.118036
0.0994414
0.0971024
0.455657
0.769601
0.84862
0.790535
0.933981
0.800193
0.133835
0.13295
0.132282
0.131838
0.131748
0.131815
0.126422
0.120273
0.195485
0.5018
0.645056
0.625128
0.436796
0.443089
0.414842
0.133777
0.132861
0.13213
0.13165
0.131655
0.132653
0.133313
0.132595
0.0859372
0.082109
0.126725
0.114908
0.120492
0.126513
0.130858
0.135191
0.138653
0.140711
0.133744
0.132792
0.132008
0.131449
0.131299
0.132149
0.134303
0.139735
0.141505
0.131992
0.123209
0.123498
0.130599
0.131899
0.13336
0.134778
0.135912
0.136447
0.136648
0.136574
0.133726
0.132751
0.131928
0.1313
0.130999
0.131413
0.13343
0.137471
0.140397
0.140054
0.140807
0.141403
0.141357
0.140981
0.140545
0.140181
0.139845
0.139357
0.138801
0.138205
0.133714
0.132725
0.131875
0.131196
0.130775
0.130862
0.132053
0.134998
0.137458
0.138838
0.139647
0.13982
0.139385
0.138827
0.138205
0.13763
0.137079
0.136473
0.135846
0.135228
0.133707
0.132708
0.131839
0.131121
0.130617
0.13047
0.131039
0.132716
0.13442
0.135665
0.136212
0.136351
0.135921
0.135386
0.134798
0.134259
0.133751
0.133213
0.132669
0.132127
0.133703
0.132695
0.131813
0.131067
0.130502
0.130204
0.130359
0.131182
0.132133
0.132868
0.13313
0.13307
0.132729
0.132206
0.131751
0.131315
0.130891
0.130437
0.129987
0.129531
0.1337
0.132688
0.131795
0.131028
0.130419
0.13002
0.129922
0.130227
0.130628
0.130916
0.130924
0.130731
0.130442
0.130013
0.129621
0.129241
0.128873
0.128481
0.128097
0.127692
0.133698
0.132682
0.131781
0.130999
0.130357
0.129889
0.129635
0.129631
0.129691
0.129681
0.129507
0.129205
0.128893
0.128501
0.128144
0.127799
0.127466
0.127116
0.12678
0.126414
0.133697
0.132678
0.131771
0.130978
0.130311
0.129794
0.129441
0.129252
0.12911
0.128914
0.128618
0.128256
0.127903
0.127527
0.127184
0.126854
0.126541
0.126214
0.125904
0.125557
0.133697
0.132676
0.131764
0.130961
0.130277
0.129724
0.129307
0.129006
0.128738
0.128425
0.128048
0.127642
0.127257
0.126878
0.126536
0.126209
0.125901
0.125585
0.12529
0.124957
0.133697
0.132674
0.131759
0.13095
0.130254
0.129675
0.129212
0.12884
0.128493
0.128111
0.127669
0.127229
0.12682
0.126437
0.126093
0.125769
0.125465
0.125158
0.124873
0.124549
0.133697
0.132674
0.131756
0.130941
0.130235
0.129638
0.129144
0.128734
0.128332
0.127905
0.127426
0.126965
0.12654
0.126151
0.125802
0.125478
0.125175
0.124871
0.124591
0.124273
0.133698
0.132674
0.131754
0.130935
0.130221
0.129612
0.129098
0.128656
0.128227
0.127769
0.127286
0.126813
0.126378
0.125984
0.125631
0.125305
0.125002
0.124699
0.124422
0.124109
0.133699
0.132675
0.131753
0.130931
0.130211
0.129593
0.129068
0.128607
0.128165
0.127695
0.127202
0.126723
0.126282
0.12588
0.125521
0.12519
0.124881
0.124573
0.124291
0.123975
0.133691
0.132658
0.131725
0.130889
0.130153
0.129517
0.12897
0.128495
0.128029
0.127546
0.127035
0.126545
0.12609
0.125679
0.125305
0.124954
0.124629
0.124305
0.124007
0.123677
0.134388
0.131663
0.122008
0.0985474
0.0478834
0.0591224
0.134366
0.133394
0.132697
0.131649
0.125335
0.1179
0.099175
0.096425
0.463879
0.765845
0.89777
0.804771
0.91576
0.800824
0.133835
0.13295
0.132283
0.131837
0.131739
0.131812
0.126321
0.118775
0.21618
0.470597
0.636457
0.635133
0.439901
0.44408
0.413492
0.133777
0.132861
0.13213
0.13165
0.131654
0.132657
0.133284
0.132154
0.0838619
0.0816893
0.134327
0.115691
0.119453
0.124843
0.129464
0.134327
0.138223
0.140454
0.133744
0.132792
0.132008
0.131449
0.131299
0.132149
0.134292
0.139689
0.141501
0.133001
0.124653
0.124695
0.130926
0.131978
0.133241
0.134552
0.135703
0.136321
0.136599
0.136573
0.133726
0.132751
0.131928
0.131299
0.131
0.131411
0.133426
0.137489
0.14055
0.140333
0.140988
0.141454
0.141344
0.140976
0.140536
0.140155
0.139811
0.139338
0.138795
0.138206
0.133714
0.132725
0.131875
0.131196
0.130775
0.130861
0.132054
0.135011
0.137505
0.138894
0.139664
0.139801
0.139356
0.138821
0.138206
0.137628
0.137072
0.13647
0.13585
0.135232
0.133707
0.132708
0.131839
0.131121
0.130617
0.130469
0.13104
0.132721
0.13443
0.135673
0.136213
0.136345
0.135913
0.135392
0.134805
0.134258
0.133743
0.133208
0.132669
0.132128
0.133703
0.132695
0.131813
0.131067
0.130502
0.130204
0.130358
0.131183
0.132134
0.132868
0.133131
0.133069
0.132724
0.132206
0.131753
0.131315
0.130889
0.130436
0.129988
0.129532
0.1337
0.132688
0.131795
0.131028
0.130419
0.13002
0.129922
0.130227
0.130628
0.130915
0.130924
0.130729
0.13044
0.130015
0.129624
0.129242
0.128871
0.12848
0.128098
0.127692
0.133698
0.132682
0.131781
0.130999
0.130357
0.129889
0.129635
0.129631
0.129691
0.129681
0.129508
0.129204
0.12889
0.1285
0.128144
0.127799
0.127466
0.127116
0.12678
0.126414
0.133697
0.132678
0.131771
0.130978
0.130311
0.129794
0.129441
0.129252
0.129109
0.128913
0.128619
0.128256
0.127902
0.127527
0.127185
0.126855
0.12654
0.126213
0.125904
0.125557
0.133697
0.132676
0.131764
0.130961
0.130277
0.129724
0.129307
0.129006
0.128737
0.128425
0.128049
0.127642
0.127257
0.126878
0.126536
0.126209
0.125901
0.125585
0.12529
0.124957
0.133697
0.132674
0.131759
0.13095
0.130254
0.129675
0.129212
0.12884
0.128493
0.128111
0.127669
0.127229
0.12682
0.126436
0.126092
0.125769
0.125465
0.125158
0.124873
0.124549
0.133697
0.132674
0.131756
0.130941
0.130235
0.129638
0.129144
0.128734
0.128332
0.127906
0.127426
0.126965
0.12654
0.12615
0.125802
0.125478
0.125175
0.124871
0.124591
0.124273
0.133698
0.132674
0.131754
0.130935
0.130221
0.129612
0.129098
0.128656
0.128227
0.127769
0.127286
0.126813
0.126378
0.125984
0.125631
0.125305
0.125001
0.124699
0.124422
0.124109
0.133699
0.132675
0.131753
0.130931
0.130211
0.129593
0.129068
0.128607
0.128165
0.127695
0.127202
0.126723
0.126282
0.12588
0.125521
0.12519
0.124881
0.124573
0.124291
0.123975
0.133691
0.132658
0.131725
0.130889
0.130153
0.129517
0.12897
0.128495
0.128029
0.127546
0.127035
0.126545
0.12609
0.125679
0.125305
0.124954
0.124628
0.124305
0.124007
0.123677
0.134389
0.131778
0.123467
0.101152
0.0481873
0.0594291
0.134366
0.133395
0.132702
0.131719
0.125488
0.117857
0.0989598
0.0971883
0.476356
0.761074
0.92053
0.819903
0.909755
0.800609
0.133835
0.13295
0.132283
0.131837
0.131732
0.131805
0.126247
0.11762
0.23808
0.445422
0.61858
0.641246
0.443449
0.446145
0.412772
0.133777
0.132861
0.13213
0.13165
0.131653
0.132658
0.133258
0.131678
0.0826762
0.0805375
0.143851
0.11763
0.119379
0.123671
0.128146
0.133382
0.137675
0.140119
0.133744
0.132792
0.132008
0.131449
0.131299
0.132149
0.134281
0.139568
0.141165
0.133385
0.125829
0.125956
0.13141
0.13219
0.133229
0.134392
0.13551
0.13618
0.136526
0.13655
0.133725
0.132751
0.131928
0.131299
0.131
0.131411
0.133421
0.137481
0.140647
0.140591
0.141212
0.141558
0.141361
0.140981
0.140535
0.140137
0.139782
0.139319
0.138786
0.138204
0.133714
0.132725
0.131875
0.131196
0.130775
0.13086
0.132053
0.135018
0.137545
0.138959
0.139699
0.139797
0.139335
0.138812
0.138205
0.137625
0.137065
0.136466
0.135851
0.135235
0.133707
0.132708
0.131839
0.131121
0.130617
0.130468
0.131039
0.132724
0.134441
0.135684
0.136219
0.136342
0.135906
0.135397
0.13481
0.134258
0.133738
0.133202
0.132668
0.132128
0.133703
0.132696
0.131813
0.131067
0.130502
0.130204
0.130358
0.131184
0.132136
0.132868
0.133133
0.133069
0.132721
0.132205
0.131754
0.131315
0.130887
0.130435
0.129989
0.129532
0.1337
0.132688
0.131795
0.131028
0.130419
0.13002
0.129921
0.130227
0.130628
0.130914
0.130925
0.130728
0.130439
0.130016
0.129626
0.129242
0.12887
0.128479
0.128098
0.127692
0.133698
0.132682
0.131781
0.130999
0.130357
0.129889
0.129635
0.129631
0.129691
0.12968
0.129509
0.129204
0.128888
0.128499
0.128144
0.127799
0.127465
0.127116
0.12678
0.126414
0.133697
0.132678
0.131771
0.130978
0.130311
0.129794
0.129441
0.129252
0.129109
0.128913
0.12862
0.128256
0.127902
0.127526
0.127186
0.126856
0.12654
0.126213
0.125904
0.125556
0.133697
0.132676
0.131764
0.130961
0.130277
0.129724
0.129307
0.129006
0.128737
0.128424
0.128049
0.127642
0.127256
0.126877
0.126536
0.126209
0.125901
0.125585
0.12529
0.124957
0.133697
0.132674
0.131759
0.13095
0.130254
0.129675
0.129212
0.12884
0.128492
0.128111
0.12767
0.127229
0.126819
0.126435
0.126092
0.125769
0.125466
0.125158
0.124873
0.124548
0.133697
0.132674
0.131756
0.130941
0.130235
0.129638
0.129144
0.128734
0.128332
0.127906
0.127426
0.126966
0.12654
0.12615
0.125801
0.125477
0.125175
0.124871
0.124591
0.124273
0.133698
0.132674
0.131754
0.130935
0.130221
0.129612
0.129098
0.128656
0.128226
0.127769
0.127286
0.126814
0.126378
0.125984
0.125631
0.125304
0.125001
0.124699
0.124422
0.124109