/*--------------------------------*- C++ -*----------------------------------*\
  =========                 |
  \\      /  F ield         | OpenFOAM: The Open Source CFD Toolbox
   \\    /   O peration     | Website:  https://openfoam.org
    \\  /    A nd           | Version:  10
     \\/     M anipulation  |
\*---------------------------------------------------------------------------*/
FoamFile
{
    format      ascii;
    class       volScalarField;
    location    "2000";
    object      omega;
}
// * * * * * * * * * * * * * * * * * * * * * * * * * * * * * * * * * * * * * //

dimensions      [0 0 -1 0 0 0 0];

internalField   nonuniform List<scalar> 
55398
(
1.73657
1.83194
2.22034
4.03984
5.91714
9.44237
1.67285
1.49202
1.34772
1.23677
1.18836
1.21493
2.02188
5.84287
8.78863
6.49003
4.82321
4.39768
3.9025
3.36683
1.59018
1.43589
1.30754
1.20016
1.11202
1.06547
1.28642
2.26955
8.52289
5.70422
4.34437
3.48559
2.80849
2.2053
1.77547
1.5912
1.4374
1.30998
1.20307
1.11393
1.04845
1.09385
1.34734
2.4809
11.6628
8.30042
3.53944
1.94505
1.64109
1.44573
1.28016
1.15318
1.05786
1.59291
1.44012
1.31343
1.20701
1.11774
1.04657
1.02393
1.13077
1.41049
1.72072
2.01394
1.71776
1.33241
1.06991
0.978219
0.908624
0.854299
0.79657
0.751266
0.712058
1.59449
1.44272
1.31674
1.21081
1.12162
1.04798
1.00135
1.01562
1.04158
1.05146
1.03412
0.968269
0.911861
0.857211
0.805889
0.762836
0.72621
0.690027
0.658673
0.630418
1.59591
1.44507
1.31975
1.21402
1.12549
1.05048
0.994077
0.967846
0.953717
0.936984
0.903148
0.862073
0.821241
0.779647
0.743023
0.709878
0.679676
0.650296
0.623752
0.599248
1.59718
1.4472
1.32249
1.21755
1.1286
1.05395
0.9934
0.949812
0.916626
0.886488
0.85188
0.816403
0.781262
0.746215
0.714789
0.685232
0.65783
0.631529
0.60724
0.584595
1.5977
1.44887
1.32501
1.22075
1.13204
1.05743
0.994534
0.944127
0.902668
0.866036
0.830279
0.795888
0.762394
0.730203
0.700555
0.672905
0.646862
0.622111
0.59888
0.57728
1.59946
1.45089
1.32723
1.22306
1.13483
1.06019
0.996691
0.943252
0.897918
0.858126
0.821157
0.786539
0.753917
0.722812
0.694127
0.667108
0.6417
0.617635
0.595018
0.573747
1.60041
1.45251
1.3293
1.22546
1.13743
1.06267
0.99863
0.94388
0.896807
0.855385
0.817488
0.782273
0.749947
0.71922
0.690789
0.663988
0.638993
0.615274
0.592961
0.571905
1.60128
1.45398
1.33119
1.22766
1.13982
1.065
1.0006
0.945211
0.897286
0.854707
0.816006
0.780641
0.74803
0.717674
0.689061
0.66254
0.637626
0.61413
0.591996
0.57105
1.60208
1.45534
1.33293
1.22969
1.14206
1.0672
1.00264
0.946787
0.898272
0.854919
0.815711
0.780003
0.747168
0.716703
0.688329
0.661837
0.636967
0.613584
0.591562
0.570697
1.60283
1.45661
1.33455
1.23158
1.14441
1.06912
1.00452
0.948417
0.899384
0.855676
0.816002
0.779931
0.747
0.716453
0.688041
0.661659
0.63684
0.613533
0.591587
0.570769
1.60352
1.45779
1.33605
1.23333
1.14605
1.07106
1.00635
0.950108
0.900742
0.8567
0.816744
0.78057
0.747348
0.716736
0.688327
0.661956
0.637153
0.613877
0.591968
0.571174
1.60417
1.4589
1.33746
1.23493
1.14761
1.07286
1.00813
0.951767
0.902189
0.857902
0.817832
0.781475
0.748135
0.717461
0.689062
0.662609
0.637812
0.61454
0.592659
0.571879
1.60478
1.45994
1.33877
1.23643
1.1493
1.07445
1.00979
0.953413
0.903731
0.859319
0.819154
0.782684
0.749247
0.718499
0.690022
0.663554
0.638715
0.615422
0.593507
0.572703
1.60528
1.46077
1.33981
1.23758
1.15046
1.07566
1.01099
0.954634
0.904858
0.860384
0.820139
0.783607
0.750081
0.719285
0.690835
0.664247
0.6393
0.61592
0.593945
0.573089
1.73198
1.71034
1.88619
3.02619
6.71764
7.439
1.67279
1.49193
1.34736
1.23314
1.17487
1.18554
1.89403
5.31266
6.99761
6.26387
4.99019
4.63982
3.98411
3.35716
1.58997
1.43563
1.30763
1.20014
1.11179
1.06153
1.25589
2.24205
8.8782
5.55117
4.22974
3.37338
2.28198
2.19833
1.66443
1.59122
1.4374
1.31002
1.20318
1.11409
1.04783
1.07983
1.32908
2.9338
8.6539
8.17207
2.49623
1.92391
1.62306
1.42455
1.25609
1.12735
1.02377
1.59294
1.44014
1.31348
1.20713
1.11787
1.04656
1.01967
1.11972
1.35142
1.63762
1.81188
1.70041
1.21966
1.07511
0.971774
0.903369
0.848826
0.791783
0.745263
0.704335
1.59452
1.44273
1.31678
1.21092
1.12174
1.0481
1.00029
1.01018
1.03358
1.04555
1.01547
0.965465
0.911528
0.854521
0.802856
0.761237
0.724664
0.688465
0.656656
0.627676
1.59594
1.44508
1.31979
1.2142
1.1255
1.05077
0.994075
0.966149
0.950393
0.93364
0.900336
0.861088
0.821047
0.779363
0.742864
0.709362
0.679036
0.64998
0.62302
0.598093
1.59721
1.44721
1.32252
1.21762
1.12877
1.05382
0.993772
0.949504
0.915522
0.885098
0.850709
0.815814
0.781091
0.746151
0.714615
0.684981
0.657533
0.631352
0.606939
0.584051
1.59791
1.44885
1.32495
1.22071
1.13216
1.05755
0.994549
0.944268
0.902467
0.865586
0.829811
0.795593
0.762157
0.73012
0.700519
0.672756
0.646722
0.622017
0.598776
0.576994
1.59945
1.45091
1.32725
1.22312
1.13491
1.0603
0.996622
0.943557
0.898094
0.85804
0.820993
0.786397
0.753764
0.722775
0.694077
0.667022
0.641613
0.61757
0.594953
0.573591
1.60041
1.45252
1.32931
1.22551
1.13749
1.06287
0.998669
0.94415
0.897045
0.855399
0.817426
0.782147
0.749814
0.719195
0.690757
0.663963
0.638917
0.615232
0.592934
0.571822
1.60128
1.45399
1.3312
1.2277
1.13987
1.06505
1.00092
0.945547
0.897403
0.854753
0.816018
0.780593
0.747884
0.717775
0.688974
0.662478
0.637575
0.614094
0.591981
0.571002
1.60208
1.45535
1.33294
1.22972
1.1421
1.06725
1.00291
0.947079
0.898356
0.85499
0.815736
0.779973
0.74707
0.716677
0.688353
0.661801
0.636939
0.61356
0.591559
0.570674
1.60282
1.45661
1.33456
1.2316
1.14445
1.06927
1.00476
0.948659
0.899473
0.855721
0.816028
0.779871
0.746963
0.716451
0.688052
0.661646
0.636824
0.613515
0.591589
0.570761
1.60352
1.45779
1.33606
1.23334
1.14608
1.07125
1.00658
0.950311
0.900818
0.856737
0.816769
0.780565
0.747324
0.716736
0.688331
0.661943
0.637138
0.613861
0.591972
0.571175
1.60417
1.4589
1.33746
1.23494
1.14766
1.07296
1.00828
0.951917
0.902249
0.857931
0.817854
0.781473
0.748116
0.717462
0.689058
0.662607
0.637799
0.614527
0.592661
0.571881
1.60478
1.45994
1.33877
1.23644
1.1493
1.07453
1.00988
0.953503
0.903769
0.859338
0.819167
0.782682
0.74923
0.718501
0.690029
0.663539
0.638698
0.615405
0.593508
0.572703
1.60528
1.46077
1.3398
1.23758
1.15045
1.07568
1.01102
0.954667
0.904875
0.86039
0.820143
0.783604
0.750067
0.719279
0.690832
0.664219
0.639291
0.615915
0.593951
0.573096
1.72982
1.65913
1.77769
2.48479
5.27106
6.62584
1.67282
1.49193
1.34737
1.23374
1.17782
1.18248
1.78872
4.56694
6.53293
6.12683
5.09567
4.45373
3.99861
3.33273
1.58994
1.43552
1.3076
1.20009
1.11181
1.06046
1.25258
2.12828
10.3558
5.56049
4.23002
3.33306
2.22318
2.14077
1.6577
1.59124
1.43738
1.31003
1.20316
1.11411
1.04783
1.08255
1.32362
2.49199
5.44681
7.22163
2.45693
1.95886
1.63123
1.41108
1.2388
1.11809
1.01975
1.59296
1.44012
1.31348
1.20711
1.11783
1.04664
1.0205
1.12057
1.37163
1.64858
1.79798
1.65456
1.20604
1.06904
0.973021
0.902299
0.844615
0.78815
0.742968
0.703251
1.59454
1.44272
1.31678
1.2109
1.12171
1.04821
1.00045
1.01085
1.03616
1.04767
1.01523
0.965545
0.907453
0.849956
0.802029
0.760669
0.723415
0.687295
0.655918
0.627359
1.59596
1.44507
1.31979
1.21426
1.12542
1.051
0.994013
0.966313
0.951021
0.934171
0.89999
0.861029
0.821337
0.778505
0.742389
0.709213
0.678561
0.649287
0.622361
0.597926
1.59723
1.4472
1.32252
1.21759
1.1288
1.05406
0.993548
0.949508
0.915655
0.885201
0.850595
0.815687
0.781048
0.745941
0.714372
0.684903
0.657323
0.631011
0.606653
0.583996
1.59807
1.44885
1.32491
1.2206
1.13213
1.05758
0.994623
0.944256
0.902448
0.865615
0.829748
0.795482
0.762234
0.730013
0.700426
0.672707
0.646631
0.62185
0.59866
0.576964
1.59946
1.4509
1.32726
1.22311
1.1349
1.06033
0.996642
0.94352
0.898082
0.85807
0.820969
0.786254
0.753754
0.722705
0.693999
0.666987
0.641563
0.617472
0.594881
0.573577
1.60041
1.45251
1.32933
1.2255
1.13748
1.06285
0.998722
0.944139
0.89704
0.855413
0.817397
0.78207
0.749827
0.719155
0.6907
0.663955
0.638884
0.615172
0.592898
0.571823
1.60128
1.45399
1.33121
1.2277
1.13985
1.06509
1.00089
0.945516
0.897422
0.85477
0.816015
0.780588
0.747884
0.717706
0.688889
0.66243
0.637549
0.614048
0.591958
0.571005
1.60208
1.45535
1.33295
1.22972
1.1421
1.06727
1.00289
0.947054
0.898362
0.855012
0.815734
0.779974
0.747063
0.716642
0.688211
0.661739
0.636925
0.613531
0.591549
0.570681
1.60283
1.45661
1.33457
1.23161
1.1444
1.06933
1.00476
0.948641
0.899491
0.855726
0.816022
0.779909
0.746911
0.71651
0.687931
0.661585
0.636818
0.613496
0.591586
0.570769
1.60352
1.45779
1.33607
1.23334
1.14611
1.07124
1.00658
0.950305
0.900838
0.856742
0.816764
0.780565
0.74731
0.716733
0.688327
0.661915
0.637138
0.613847
0.591973
0.571184
1.60417
1.4589
1.33747
1.23494
1.14769
1.07293
1.00828
0.951912
0.902265
0.857935
0.817851
0.781473
0.7481
0.717459
0.689049
0.662592
0.637801
0.614516
0.592662
0.571888
1.60478
1.45994
1.33879
1.23644
1.14931
1.07452
1.00988
0.953497
0.90378
0.859341
0.819166
0.782682
0.749214
0.718498
0.690024
0.663526
0.638697
0.615389
0.593507
0.57271
1.60528
1.46077
1.33981
1.23758
1.15045
1.07568
1.01101
0.954664
0.904881
0.860392
0.820144
0.783604
0.75005
0.719271
0.690839
0.664182
0.639286
0.615904
0.593957
0.573105
1.72916
1.61812
1.70892
2.19547
4.74015
6.20711
1.67283
1.49191
1.34735
1.23455
1.18345
1.18539
1.76532
4.19086
6.27543
5.99113
5.1128
4.43788
4.01017
3.36675
1.58991
1.43543
1.30756
1.20005
1.11185
1.05979
1.24904
2.13841
12.0831
5.62467
4.24901
3.31809
2.20849
2.11288
1.65602
1.59126
1.43737
1.31003
1.20314
1.11412
1.04779
1.08417
1.32957
2.28977
4.64162
6.95866
2.4138
1.9696
1.63905
1.41045
1.24262
1.11809
1.01868
1.59298
1.44011
1.31348
1.20709
1.1178
1.04669
1.02131
1.12134
1.37229
1.65569
1.80113
1.63624
1.20718
1.07996
0.978783
0.903091
0.843361
0.788659
0.742635
0.702809
1.59455
1.44271
1.31678
1.21088
1.12168
1.04828
1.00066
1.0114
1.03851
1.05024
1.01602
0.966384
0.9071
0.851205
0.802484
0.7604
0.72299
0.687554
0.655874
0.627268
1.59597
1.44506
1.31979
1.21429
1.12537
1.05117
0.993994
0.966467
0.95167
0.93484
0.900088
0.861162
0.81983
0.777013
0.742006
0.709011
0.678408
0.649379
0.622441
0.597894
1.59724
1.44719
1.32252
1.21758
1.1288
1.05423
0.993401
0.949482
0.915786
0.885343
0.850603
0.815682
0.780277
0.745038
0.71415
0.68479
0.657255
0.631076
0.606674
0.583993
1.59818
1.44888
1.32488
1.22053
1.13209
1.05759
0.994645
0.94425
0.902443
0.865643
0.829736
0.795401
0.762184
0.729591
0.700368
0.672661
0.646605
0.621877
0.598674
0.576961
1.59946
1.45089
1.32726
1.22311
1.13488
1.06034
0.996647
0.943496
0.898067
0.85809
0.820965
0.786142
0.753784
0.722547
0.693991
0.666962
0.64155
0.617481
0.594874
0.573573
1.60041
1.45251
1.32933
1.2255
1.13746
1.06284
0.998745
0.944134
0.897034
0.855423
0.817384
0.782085
0.749771
0.719019
0.690699
0.663953
0.638875
0.615172
0.59289
0.571825
1.60128
1.45398
1.33122
1.2277
1.13984
1.06511
1.00087
0.945489
0.897426
0.854783
0.816017
0.780588
0.747862
0.717489
0.688985
0.66243
0.637539
0.614041
0.591945
0.571007
1.60208
1.45534
1.33296
1.22972
1.14209
1.06729
1.00287
0.947032
0.898359
0.855026
0.815737
0.779977
0.747051
0.71654
0.688196
0.661735
0.63692
0.613524
0.591538
0.570685
1.60283
1.45661
1.33457
1.23161
1.14437
1.06935
1.00476
0.948628
0.899499
0.855732
0.81602
0.779934
0.746883
0.716486
0.68783
0.661552
0.636811
0.613488
0.591576
0.570774
1.60352
1.45779
1.33608
1.23335
1.14613
1.07121
1.00657
0.950297
0.900848
0.856748
0.816762
0.780565
0.747308
0.716698
0.688207
0.661896
0.63714
0.61384
0.591963
0.571188
1.60417
1.4589
1.33748
1.23495
1.14772
1.07291
1.00827
0.951905
0.902274
0.857941
0.817851
0.781473
0.748099
0.717437
0.688952
0.662586
0.637808
0.614511
0.592651
0.57189
1.60478
1.45994
1.33879
1.23644
1.14931
1.07452
1.00988
0.953491
0.903785
0.859344
0.819166
0.782682
0.749212
0.718482
0.689954
0.663528
0.638704
0.615382
0.593498
0.572713
1.60528
1.46077
1.33982
1.23758
1.15045
1.07567
1.01101
0.954661
0.904884
0.860394
0.820146
0.783604
0.750048
0.719265
0.690802
0.664166
0.639286
0.615898
0.593953
0.573112
1.72893
1.58771
1.6455
1.99505
4.46878
5.91538
1.67284
1.49188
1.34731
1.2346
1.18774
1.18771
1.73634
3.8947
6.04259
5.81168
5.075
4.44159
4.03052
3.40377
1.58988
1.43536
1.30751
1.20002
1.1119
1.05932
1.24313
2.09651
13.3529
5.70789
4.28393
3.31615
2.19405
2.09314
1.6536
1.59127
1.43737
1.31003
1.20313
1.11412
1.04773
1.08437
1.32931
2.18061
4.8064
7.18419
2.36811
1.96393
1.64252
1.4106
1.24504
1.11875
1.01802
1.59299
1.44011
1.31348
1.20708
1.11778
1.04671
1.02183
1.12118
1.36008
1.64163
1.78797
1.62843
1.20914
1.08694
0.984277
0.904993
0.842965
0.788931
0.742469
0.702447
1.59456
1.44271
1.31678
1.21088
1.12166
1.04833
1.00086
1.01173
1.03988
1.05236
1.01723
0.967286
0.907118
0.852055
0.802982
0.760318
0.722667
0.687652
0.655866
0.627199
1.59598
1.44506
1.31979
1.21431
1.12534
1.05129
0.994022
0.966593
0.952208
0.935503
0.900316
0.861271
0.81933
0.778029
0.742031
0.708872
0.678264
0.649413
0.622512
0.597889
1.59725
1.44719
1.32252
1.21757
1.12881
1.05435
0.993331
0.949456
0.915894
0.885489
0.850636
0.815682
0.780038
0.745377
0.7141
0.684694
0.657183
0.631107
0.6067
0.583998
1.59825
1.44891
1.32487
1.22047
1.13206
1.0576
0.994658
0.944245
0.902443
0.865665
0.829735
0.795339
0.762262
0.72958
0.700338
0.672621
0.646579
0.621892
0.598688
0.576962
1.59946
1.45089
1.32726
1.2231
1.13487
1.06035
0.996654
0.943481
0.898053
0.858099
0.820966
0.786061
0.753807
0.722599
0.694005
0.66695
0.641539
0.617486
0.594872
0.57357
1.60041
1.45251
1.32933
1.2255
1.13746
1.06283
0.99876
0.944134
0.89703
0.855428
0.817377
0.782092
0.749745
0.719011
0.690705
0.663954
0.638869
0.615171
0.592884
0.571826
1.60128
1.45398
1.33122
1.2277
1.13984
1.06512
1.00086
0.945468
0.897423
0.854792
0.816022
0.780588
0.747852
0.717406
0.689047
0.662448
0.637538
0.614036
0.591935
0.571006
1.60209
1.45534
1.33296
1.22972
1.14208
1.0673
1.00287
0.947014
0.898353
0.855035
0.815742
0.77998
0.747045
0.716508
0.68821
0.66174
0.636919
0.61352
0.591529
0.570685
1.60283
1.45661
1.33458
1.23161
1.14435
1.06936
1.00476
0.948619
0.899502
0.855738
0.81602
0.779951
0.746868
0.716406
0.687886
0.66155
0.636805
0.613482
0.591567
0.570774
1.60352
1.45779
1.33608
1.23335
1.14614
1.0712
1.00656
0.95029
0.900854
0.856754
0.816763
0.780563
0.747307
0.716678
0.688203
0.661887
0.637138
0.613835
0.591954
0.571189
1.60417
1.4589
1.33748
1.23495
1.14774
1.0729
1.00826
0.951897
0.902279
0.857947
0.817853
0.781473
0.748101
0.717424
0.688933
0.662581
0.637811
0.614509
0.592643
0.57189
1.60479
1.45993
1.3388
1.23644
1.14932
1.07451
1.00987
0.953486
0.903788
0.859347
0.819168
0.782682
0.749218
0.718472
0.689928
0.663527
0.638709
0.615378
0.59349
0.572713
1.60528
1.46077
1.33983
1.23759
1.15046
1.07567
1.01101
0.954658
0.904886
0.860396
0.820147
0.783604
0.750056
0.719279
0.690765
0.664148
0.639281
0.615893
0.593949
0.573115
1.72884
1.56886
1.59074
1.8584
4.30471
5.75336
1.67284
1.49186
1.34725
1.23413
1.19
1.18906
1.70734
3.75975
5.82342
5.61889
5.0011
4.43273
4.05071
3.43651
1.58986
1.4353
1.30746
1.19999
1.11196
1.059
1.23637
2.04326
14.2911
5.79177
4.33519
3.32887
2.18184
2.07676
1.65011
1.59128
1.43737
1.31003
1.20312
1.11413
1.04767
1.0836
1.32336
2.10849
4.99578
7.61801
2.33242
1.95074
1.64147
1.41024
1.24624
1.11943
1.01768
1.593
1.44011
1.31348
1.20708
1.11777
1.04673
1.02206
1.11997
1.34523
1.61684
1.76208
1.61915
1.21066
1.09145
0.98892
0.907403
0.843256
0.78917
0.742399
0.70217
1.59457
1.4427
1.31678
1.21087
1.12165
1.04836
1.00102
1.01179
1.04014
1.05338
1.01829
0.968149
0.907371
0.852701
0.80347
0.760365
0.722442
0.687645
0.655852
0.627141
1.59599
1.44506
1.31979
1.21433
1.12533
1.05136
0.994074
0.966681
0.952569
0.936056
0.900605
0.861377
0.819002
0.778609
0.7422
0.708817
0.678146
0.649402
0.622557
0.597894
1.59726
1.44719
1.32253
1.21756
1.12881
1.05444
0.993312
0.949442
0.915978
0.885628
0.850692
0.815695
0.779876
0.745594
0.714125
0.684632
0.657113
0.631108
0.606716
0.584003
1.5983
1.44895
1.32487
1.22043
1.13202
1.05761
0.994666
0.944244
0.902445
0.865682
0.829741
0.795296
0.762288
0.729617
0.700333
0.672592
0.646552
0.621893
0.598697
0.576963
1.59946
1.45089
1.32726
1.2231
1.13486
1.06035
0.996661
0.943474
0.898041
0.858102
0.820968
0.786003
0.753805
0.722645
0.69403
0.666947
0.641529
0.617487
0.59487
0.573566
1.60041
1.4525
1.32934
1.2255
1.13745
1.06283
0.998769
0.944137
0.897026
0.855431
0.817374
0.782095
0.749728
0.719006
0.690712
0.663956
0.638866
0.61517
0.592879
0.571824
1.60128
1.45398
1.33123
1.2277
1.13983
1.06513
1.00086
0.945454
0.897417
0.854797
0.816027
0.780589
0.747845
0.717353
0.689079
0.662469
0.637542
0.614033
0.591927
0.571003
1.60209
1.45534
1.33297
1.22973
1.14208
1.06731
1.00286
0.947002
0.898345
0.855039
0.815748
0.779983
0.747042
0.716486
0.688222
0.661747
0.63692
0.613517
0.591522
0.570684
1.60283
1.45661
1.33458
1.23162
1.14434
1.06936
1.00477
0.948614
0.899502
0.855743
0.816023
0.779964
0.746863
0.716349
0.687923
0.661559
0.636804
0.613477
0.591559
0.570772
1.60353
1.45779
1.33608
1.23336
1.14615
1.07119
1.00656
0.950282
0.900856
0.856759
0.816766
0.780563
0.747308
0.71666
0.688215
0.661886
0.637137
0.613832
0.591947
0.571187
1.60418
1.45889
1.33749
1.23496
1.14775
1.07289
1.00825
0.951889
0.90228
0.857951
0.817856
0.781473
0.748105
0.717408
0.688934
0.662579
0.637813
0.614508
0.592637
0.571888
1.60479
1.45993
1.3388
1.23645
1.14932
1.07451
1.00987
0.953482
0.903789
0.85935
0.819169
0.782683
0.749222
0.718455
0.689924
0.663527
0.638712
0.615377
0.593485
0.572711
1.60528
1.46077
1.33983
1.23759
1.15046
1.07567
1.01101
0.954656
0.904887
0.860398
0.820149
0.783605
0.750062
0.719299
0.690743
0.664131
0.639273
0.615887
0.593944
0.573117
1.72881
1.55859
1.5472
1.76238
4.21238
5.69227
1.67283
1.49185
1.34718
1.23339
1.19013
1.1891
1.68268
3.77667
5.60384
5.45411
4.90203
4.40615
4.06874
3.46117
1.58984
1.43526
1.30742
1.19997
1.11201
1.05877
1.23019
2.00091
14.7588
5.85505
4.39745
3.3559
2.17348
2.06344
1.64566
1.59128
1.43736
1.31002
1.20312
1.11413
1.04761
1.08232
1.3144
2.05632
4.86948
7.97652
2.31023
1.93635
1.6373
1.4089
1.24647
1.11988
1.01753
1.593
1.44011
1.31348
1.20708
1.11776
1.04673
1.02205
1.11788
1.33134
1.58936
1.73172
1.60494
1.21095
1.09422
0.992578
0.909889
0.844039
0.789521
0.742428
0.701981
1.59457
1.4427
1.31678
1.21087
1.12164
1.04838
1.00112
1.01159
1.03948
1.05311
1.01878
0.968794
0.90771
0.853262
0.80395
0.760507
0.722308
0.687595
0.655822
0.627089
1.59599
1.44506
1.31979
1.21434
1.12533
1.05142
0.994128
0.966724
0.952729
0.936411
0.900889
0.86149
0.818803
0.778937
0.7424
0.708828
0.678064
0.649372
0.622577
0.5979
1.59726
1.44719
1.32253
1.21756
1.12881
1.0545
0.993319
0.949439
0.916036
0.885746
0.850764
0.81572
0.779777
0.745726
0.714177
0.684597
0.657054
0.631092
0.606721
0.584006
1.59834
1.44899
1.32488
1.22041
1.132
1.05761
0.994673
0.944244
0.902449
0.865695
0.829753
0.795268
0.762291
0.729653
0.700343
0.672574
0.646528
0.621887
0.5987
0.576964
1.59946
1.45089
1.32726
1.2231
1.13486
1.06036
0.996667
0.943471
0.898031
0.858101
0.82097
0.785961
0.753791
0.722673
0.694059
0.666951
0.641524
0.617486
0.594868
0.573563
1.60041
1.4525
1.32934
1.22551
1.13745
1.06282
0.998774
0.94414
0.897024
0.855431
0.817373
0.782094
0.749715
0.719
0.690719
0.66396
0.638865
0.615168
0.592875
0.571822
1.60128
1.45398
1.33123
1.2277
1.13983
1.06514
1.00086
0.945446
0.89741
0.854798
0.816032
0.780591
0.747841
0.717316
0.689098
0.662488
0.63755
0.614033
0.591922
0.570999
1.60209
1.45534
1.33297
1.22973
1.14208
1.06731
1.00286
0.946993
0.898337
0.85504
0.815753
0.779987
0.747041
0.716471
0.688235
0.661756
0.636922
0.613516
0.591517
0.570681
1.60283
1.45661
1.33458
1.23162
1.14433
1.06937
1.00477
0.948611
0.899501
0.855746
0.816026
0.779973
0.746861
0.716307
0.68795
0.661573
0.636807
0.613475
0.591553
0.570769
1.60353
1.45779
1.33609
1.23336
1.14616
1.07119
1.00655
0.950276
0.900855
0.856763
0.816769
0.780563
0.747308
0.716644
0.688236
0.661892
0.637138
0.613829
0.591941
0.571184
1.60418
1.45889
1.33749
1.23496
1.14776
1.07289
1.00824
0.951882
0.902279
0.857954
0.817859
0.781474
0.748107
0.717392
0.68895
0.662583
0.637816
0.614509
0.592633
0.571886
1.60479
1.45993
1.3388
1.23645
1.14932
1.07451
1.00987
0.953479
0.903789
0.859352
0.819171
0.782683
0.749226
0.718437
0.689939
0.66353
0.638715
0.615377
0.593481
0.572709
1.60528
1.46077
1.33983
1.23759
1.15046
1.07567
1.01101
0.954654
0.904887
0.860399
0.820151
0.783606
0.750066
0.719318
0.69075
0.664122
0.639265
0.615881
0.593939
0.573117
1.7288
1.55351
1.51522
1.69367
4.1698
5.68743
1.67283
1.49183
1.34713
1.23258
1.18858
1.18774
1.66384
3.90137
5.38386
5.29778
4.78659
4.36172
4.08153
3.47788
1.58983
1.43523
1.30739
1.19994
1.11205
1.05858
1.22538
1.97927
14.8003
5.89456
4.46123
3.39516
2.16993
2.05351
1.64067
1.59128
1.43736
1.31002
1.20311
1.11414
1.04756
1.08089
1.30551
2.01897
4.63945
8.25584
2.30082
1.92436
1.63177
1.40666
1.24591
1.11997
1.01743
1.593
1.44011
1.31348
1.20708
1.11776
1.04672
1.02187
1.11529
1.31931
1.56249
1.70169
1.58646
1.2095
1.0955
0.995196
0.912171
0.845107
0.790011
0.74256
0.701876
1.59457
1.44271
1.31678
1.21087
1.12164
1.04839
1.00116
1.01114
1.03822
1.05173
1.01852
0.96906
0.907975
0.853734
0.804403
0.760717
0.722262
0.687544
0.655783
0.62704
1.59599
1.44506
1.31979
1.21435
1.12533
1.05145
0.994175
0.966713
0.952701
0.936527
0.9011
0.861596
0.818693
0.779125
0.742576
0.708876
0.678018
0.649338
0.622581
0.597904
1.59726
1.44719
1.32253
1.21756
1.12882
1.05455
0.993337
0.94944
0.916066
0.885831
0.850842
0.815753
0.779725
0.745807
0.714231
0.684583
0.657008
0.631067
0.606718
0.584007
1.59836
1.44902
1.32489
1.2204
1.13198
1.05761
0.994678
0.944246
0.902452
0.865705
0.829769
0.795253
0.762283
0.729677
0.700357
0.672566
0.646511
0.621879
0.598699
0.576964
1.59946
1.45089
1.32727
1.2231
1.13485
1.06036
0.996672
0.943471
0.898024
0.858098
0.820972
0.785931
0.753772
0.722689
0.694082
0.66696
0.641521
0.617484
0.594866
0.57356
1.60041
1.4525
1.32934
1.22551
1.13745
1.06282
0.998778
0.944144
0.897023
0.85543
0.817374
0.782095
0.749706
0.718993
0.690723
0.663964
0.638865
0.615167
0.592871
0.571819
1.60128
1.45398
1.33123
1.22771
1.13983
1.06514
1.00086
0.945441
0.897403
0.854797
0.816037
0.780594
0.747838
0.717291
0.689105
0.662503
0.637559
0.614035
0.591918
0.570995
1.60209
1.45534
1.33297
1.22973
1.14208
1.06731
1.00286
0.946987
0.898329
0.855039
0.815756
0.779991
0.747041
0.71646
0.688242
0.661763
0.636926
0.613516
0.591513
0.570678
1.60283
1.45661
1.33459
1.23162
1.14432
1.06936
1.00477
0.948609
0.8995
0.855747
0.816029
0.779981
0.746862
0.716279
0.687961
0.661586
0.636812
0.613474
0.591549
0.570766
1.60353
1.45779
1.33609
1.23336
1.14617
1.07119
1.00655
0.95027
0.900854
0.856765
0.816772
0.780565
0.747309
0.716632
0.688247
0.661898
0.637141
0.613829
0.591938
0.571181
1.60418
1.45889
1.33749
1.23496
1.14777
1.07289
1.00824
0.951876
0.902276
0.857956
0.817861
0.781475
0.748109
0.717381
0.688958
0.662587
0.637819
0.61451
0.592631
0.571884
1.60479
1.45993
1.3388
1.23645
1.14933
1.07451
1.00987
0.953476
0.903788
0.859354
0.819173
0.782684
0.749228
0.718425
0.689947
0.663535
0.638719
0.615378
0.593479
0.572707
1.60529
1.46077
1.33983
1.23759
1.15046
1.07567
1.01101
0.954652
0.904887
0.8604
0.820153
0.783607
0.75007
0.719332
0.690759
0.664118
0.639258
0.615874
0.593934
0.573115
1.7288
1.55117
1.49341
1.64435
4.15259
5.70904
1.67283
1.49182
1.34708
1.23179
1.18602
1.18508
1.65011
4.05579
5.17754
5.13986
4.65984
4.30644
4.08334
3.48879
1.58982
1.43521
1.30736
1.19991
1.11206
1.05839
1.22209
1.97839
14.5595
5.9139
4.51422
3.44318
2.17157
2.0474
1.63563
1.59128
1.43736
1.31002
1.20311
1.11414
1.04751
1.07957
1.29898
1.9979
4.55299
8.50211
2.30207
1.91654
1.6264
1.4039
1.24477
1.11969
1.01728
1.593
1.44012
1.31348
1.20708
1.11776
1.04672
1.0216
1.11261
1.30937
1.53879
1.67305
1.56557
1.20615
1.09535
0.996781
0.914064
0.846273
0.79061
0.74279
0.701857
1.59458
1.44271
1.31679
1.21087
1.12164
1.04839
1.00116
1.01052
1.03662
1.04958
1.01752
0.968867
0.908055
0.854084
0.804812
0.760968
0.722291
0.687517
0.655747
0.626994
1.59599
1.44506
1.3198
1.21436
1.12534
1.05148
0.99421
0.966647
0.952516
0.936407
0.901197
0.861672
0.818638
0.779236
0.742717
0.708942
0.678003
0.649309
0.622576
0.597904
1.59727
1.44719
1.32253
1.21756
1.12882
1.05458
0.993359
0.94944
0.916069
0.885877
0.850916
0.815788
0.779701
0.745864
0.714282
0.684584
0.656975
0.631041
0.606707
0.584003
1.59838
1.44904
1.32491
1.2204
1.13196
1.0576
0.994682
0.944248
0.902454
0.865709
0.829785
0.795249
0.762272
0.729692
0.700371
0.672563
0.646498
0.62187
0.598696
0.576962
1.59946
1.45089
1.32727
1.2231
1.13485
1.06036
0.996676
0.943473
0.898019
0.858092
0.820975
0.785909
0.753752
0.722696
0.6941
0.666969
0.641522
0.617484
0.594864
0.573558
1.60041
1.4525
1.32934
1.22551
1.13745
1.06282
0.99878
0.944147
0.897022
0.855428
0.817375
0.782096
0.749698
0.718987
0.690725
0.663967
0.638866
0.615167
0.592869
0.571816
1.60128
1.45398
1.33123
1.22771
1.13983
1.06514
1.00087
0.945438
0.897398
0.854793
0.816039
0.780596
0.747836
0.717274
0.689105
0.662513
0.637567
0.614039
0.591917
0.570992
1.60209
1.45534
1.33297
1.22973
1.14208
1.06732
1.00287
0.946984
0.898323
0.855035
0.815758
0.779994
0.747041
0.716452
0.688245
0.66177
0.636931
0.613517
0.591511
0.570675
1.60283
1.45661
1.33459
1.23162
1.14432
1.06936
1.00477
0.948608
0.899498
0.855748
0.816032
0.779987
0.746864
0.71626
0.687963
0.661595
0.636818
0.613476
0.591546
0.570763
1.60353
1.45779
1.33609
1.23336
1.14617
1.07119
1.00654
0.950266
0.900851
0.856766
0.816774
0.780567
0.747309
0.716624
0.688252
0.661905
0.637144
0.613829
0.591935
0.571178
1.60418
1.4589
1.33749
1.23496
1.14778
1.0729
1.00824
0.951871
0.902273
0.857956
0.817863
0.781477
0.748111
0.717374
0.688962
0.662592
0.637821
0.614511
0.59263
0.571882
1.60479
1.45993
1.33881
1.23645
1.14933
1.07452
1.00987
0.953474
0.903787
0.859354
0.819175
0.782686
0.74923
0.718418
0.68995
0.663539
0.638722
0.61538
0.593478
0.572705
1.60529
1.46077
1.33983
1.2376
1.15047
1.07567
1.01101
0.954651
0.904886
0.860401
0.820154
0.783608
0.750072
0.719342
0.690768
0.664117
0.639253
0.615869
0.593929
0.573113
1.7288
1.55015
1.47954
1.60905
4.14499
5.74149
1.67283
1.49182
1.34703
1.23111
1.18307
1.18141
1.64012
4.18785
5.01185
4.99248
4.53665
4.24643
4.06764
3.49492
1.58981
1.43519
1.30734
1.19988
1.11205
1.05818
1.22004
1.99152
14.1435
5.91468
4.54758
3.49508
2.17797
2.04533
1.63098
1.59128
1.43736
1.31002
1.20311
1.11414
1.04746
1.07848
1.29567
1.99372
4.59974
8.70984
2.31071
1.91319
1.62219
1.40111
1.24332
1.11909
1.01701
1.59301
1.44012
1.31349
1.20708
1.11776
1.04671
1.0213
1.11027
1.3019
1.52043
1.64685
1.54402
1.20108
1.09389
0.997362
0.915444
0.84738
0.791268
0.743102
0.701919
1.59458
1.44271
1.31679
1.21087
1.12164
1.0484
1.00112
1.00982
1.03489
1.04702
1.01595
0.968217
0.907885
0.854272
0.805148
0.761231
0.722374
0.687522
0.65572
0.626954
1.59599
1.44506
1.3198
1.21437
1.12534
1.05149
0.994232
0.966536
0.952213
0.936087
0.901156
0.861698
0.818609
0.779308
0.742828
0.709009
0.678005
0.649289
0.622567
0.597899
1.59727
1.4472
1.32253
1.21757
1.12883
1.0546
0.99338
0.949435
0.916046
0.885879
0.850973
0.815821
0.779694
0.745909
0.71433
0.684594
0.656953
0.631016
0.606692
0.583995
1.59839
1.44906
1.32493
1.2204
1.13195
1.0576
0.994686
0.944249
0.902455
0.865709
0.8298
0.795253
0.762263
0.729701
0.700383
0.672564
0.64649
0.621863
0.598692
0.576959
1.59946
1.45089
1.32727
1.2231
1.13485
1.06036
0.996679
0.943475
0.898016
0.858085
0.820976
0.785892
0.753733
0.722697
0.694113
0.666979
0.641524
0.617484
0.594863
0.573555
1.60041
1.4525
1.32934
1.22551
1.13745
1.06282
0.998781
0.944149
0.897023
0.855424
0.817376
0.782098
0.749692
0.718981
0.690724
0.663969
0.638868
0.615168
0.592867
0.571814
1.60128
1.45398
1.33123
1.22771
1.13983
1.06514
1.00087
0.945438
0.897393
0.854789
0.816041
0.780599
0.747834
0.717262
0.689103
0.66252
0.637575
0.614044
0.591917
0.57099
1.60209
1.45534
1.33297
1.22973
1.14208
1.06732
1.00287
0.946983
0.898318
0.855031
0.815759
0.779997
0.747042
0.716447
0.688246
0.661775
0.636935
0.61352
0.59151
0.570672
1.60283
1.45661
1.33459
1.23162
1.14432
1.06936
1.00477
0.948607
0.899496
0.855747
0.816034
0.779993
0.746868
0.716247
0.687962
0.661602
0.636824
0.613478
0.591545
0.57076
1.60353
1.45779
1.33609
1.23337
1.14618
1.07119
1.00654
0.950263
0.900848
0.856765
0.816776
0.780569
0.747311
0.716618
0.688255
0.66191
0.637148
0.613831
0.591934
0.571176
1.60418
1.4589
1.33749
1.23497
1.14778
1.0729
1.00824
0.951868
0.90227
0.857956
0.817865
0.781479
0.748113
0.717369
0.688963
0.662595
0.637824
0.614513
0.59263
0.571881
1.60479
1.45993
1.33881
1.23646
1.14933
1.07452
1.00987
0.953472
0.903785
0.859355
0.819176
0.782687
0.749232
0.718413
0.689951
0.663542
0.638725
0.615381
0.593478
0.572704
1.60529
1.46077
1.33984
1.2376
1.15047
1.07567
1.01101
0.95465
0.904886
0.860401
0.820155
0.78361
0.750075
0.71935
0.690777
0.66412
0.63925
0.615864
0.593924
0.57311
1.7288
1.54972
1.47131
1.58402
4.14122
5.77369
1.67283
1.49181
1.347
1.23053
1.18016
1.17714
1.6327
4.28179
4.92076
4.86695
4.42553
4.188
4.03139
3.49468
1.58981
1.43518
1.30733
1.19986
1.11201
1.05794
1.21882
2.01036
13.5599
5.89645
4.56066
3.54442
2.18805
2.04714
1.62712
1.59129
1.43736
1.31002
1.20311
1.11414
1.04741
1.07763
1.29522
2.00324
4.68985
8.85331
2.32317
1.91358
1.61959
1.39873
1.24182
1.11827
1.0166
1.59301
1.44012
1.31349
1.20708
1.11776
1.0467
1.02101
1.10857
1.2973
1.50828
1.62537
1.5234
1.19462
1.09126
0.996996
0.916248
0.848313
0.791922
0.743466
0.702048
1.59458
1.44271
1.31679
1.21087
1.12164
1.0484
1.00107
1.00916
1.03324
1.04438
1.014
0.967173
0.907446
0.854273
0.805382
0.761478
0.722494
0.687552
0.655708
0.626921
1.59599
1.44507
1.3198
1.21437
1.12535
1.05151
0.994243
0.966397
0.951836
0.935616
0.900979
0.861654
0.818577
0.779352
0.742913
0.70907
0.678019
0.649278
0.622557
0.597892
1.59727
1.4472
1.32254
1.21757
1.12883
1.05462
0.993399
0.949423
0.915998
0.885839
0.851007
0.815847
0.779692
0.745946
0.714375
0.684611
0.65694
0.630995
0.606676
0.583984
1.5984
1.44908
1.32494
1.2204
1.13195
1.0576
0.994689
0.944249
0.902452
0.865702
0.82981
0.795262
0.762256
0.729705
0.700392
0.672567
0.646485
0.621858
0.598688
0.576955
1.59946