/*--------------------------------*- C++ -*----------------------------------*\
  =========                 |
  \\      /  F ield         | OpenFOAM: The Open Source CFD Toolbox
   \\    /   O peration     | Website:  https://openfoam.org
    \\  /    A nd           | Version:  10
     \\/     M anipulation  |
\*---------------------------------------------------------------------------*/
FoamFile
{
    format      ascii;
    class       volScalarField;
    location    "2000";
    object      p;
}
// * * * * * * * * * * * * * * * * * * * * * * * * * * * * * * * * * * * * * //

dimensions      [0 2 -2 0 0 0 0];

internalField   nonuniform List<scalar> 
55398
(
37.2706
29.9786
34.2609
35.5382
38.7465
46.7247
32.8811
30.2581
32.8527
34.3992
37.9161
44.8318
54.9537
68.141
-35.4478
-18.6415
-5.76104
-0.480013
0.3995
0.333958
30.699
29.8146
31.2079
33.0078
35.6176
39.7157
41.9801
37.6155
-30.1741
-38.5985
-17.4223
-5.54714
-2.53454
-1.5775
-0.0720219
29.3976
28.7425
29.624
30.7296
31.978
32.725
29.6009
15.4681
-67.5863
-107.22
-51.0773
-36.0783
-31.4222
-16.2177
-7.50209
-3.55111
-2.7166
-0.319561
28.0192
27.526
27.8841
28.2735
28.2026
26.5624
19.6656
-6.07021
-60.0333
-93.6206
-123.12
-90.3651
-54.9884
-36.8474
-29.2907
-17.5018
-9.48643
-4.89097
-3.37855
-0.981547
26.6374
26.2049
26.1183
25.8268
24.6702
21.2542
12.7739
-11.1358
-57.1759
-81.7184
-93.2036
-73.7275
-48.6932
-36.7501
-28.3443
-18.5419
-10.8853
-6.17991
-3.94
-1.42432
25.252
24.8368
24.3663
23.4616
21.3886
16.9178
7.42662
-12.178
-47.9573
-68.664
-77.8587
-65.1056
-47.2616
-36.1259
-27.8581
-19.1607
-12.0229
-7.18068
-4.30863
-1.76869
23.8981
23.4704
22.6736
21.2501
18.4781
13.3268
3.68382
-13.2996
-41.443
-59.0768
-66.6628
-59.1032
-45.3319
-35.1175
-27.2003
-19.4499
-12.7928
-7.97414
-4.63331
-2.06922
22.589
22.1212
21.0527
19.2219
15.9685
10.4342
0.928071
-13.9137
-36.2211
-51.3006
-58.2032
-53.2788
-42.779
-33.9444
-26.6278
-19.6537
-13.363
-8.63234
-4.8919
-2.29638
21.3587
20.8481
19.5582
17.4013
13.8129
8.06901
-1.05163
-14.1762
-32.2457
-45.2209
-51.349
-48.5901
-40.6503
-32.9429
-26.1491
-19.7249
-13.7348
-9.11667
-5.088
-2.47182
20.2333
19.6916
18.226
15.8124
11.9829
6.16747
-2.53997
-14.2656
-29.2001
-40.3607
-45.9509
-44.5417
-38.4195
-31.7774
-25.5469
-19.6593
-13.9654
-9.48317
-5.23568
-2.60631
19.2214
18.648
17.0451
14.4365
10.4537
4.6305
-3.60788
-14.1886
-26.8037
-36.5516
-41.6443
-41.1392
-36.5131
-30.8233
-25.0759
-19.6123
-14.1327
-9.76558
-5.34981
-2.708
18.3328
17.7306
16.023
13.2717
9.19473
3.4338
-4.37727
-14.0489
-24.9348
-33.5655
-38.2278
-38.3551
-34.8233
-29.8969
-24.5889
-19.4627
-14.1916
-9.95017
-5.42113
-2.78022
17.5772
16.9514
15.1657
12.3129
8.19108
2.509
-4.93503
-13.8888
-23.4764
-31.304
-35.581
-36.0821
-33.4116
-29.1105
-24.1647
-19.3465
-14.2404
-10.0999
-5.48515
-2.84076
16.9626
16.3188
14.4765
11.5527
7.40556
1.81096
-5.33069
-13.7573
-22.3603
-29.563
-33.5387
-34.3116
-32.3128
-28.4557
-23.8075
-19.2207
-14.2402
-10.1866
-5.51562
-2.87617
16.4956
15.8389
13.9576
10.9857
6.82854
1.29825
-5.60866
-13.6172
-21.6313
-28.2228
-32.0315
-33.1157
-31.5084
-27.9586
-23.5406
-19.1234
-14.2415
-10.2557
-5.5458
-2.90724
16.1811
15.5159
13.6104
10.61
6.45101
0.967453
-5.77392
-13.5223
-21.122
-27.4441
-31.1928
-32.1626
-30.9413
-27.6094
-23.3463
-19.0493
-14.2298
-10.2895
-5.55613
-2.9209
16.0232
15.3533
13.4361
10.4221
6.26008
0.799427
-5.86331
-13.5031
-20.8557
-27.0735
-30.7403
-31.6671
-30.7108
-27.444
-23.2473
-19.009
-14.2244
-10.3093
-5.56369
-2.9292
37.1579
30.2016
34.4449
35.5751
39.8643
47.0531
32.8467
30.2574
32.8231
34.4276
37.9967
44.8209
55.6941
70.3705
-35.4589
-19.2343
-6.29461
0.442138
1.38899
2.24541
30.6537
29.7434
31.1493
32.9844
35.5119
39.6029
41.797
37.2176
-32.9816
-37.0675
-18.8139
-5.63901
-0.420186
-0.537109
1.34887
29.3733
28.671
29.5671
30.7146
31.8904
32.6676
29.4984
15.4245
-67.1704
-103.727
-50.1288
-32.8694
-30.9452
-16.7988
-7.46822
-3.12534
-2.60607
0.103137
27.998
27.4629
27.8305
28.2532
28.12
26.5675
19.5649
-5.59684
-58.7458
-92.8529
-119.401
-90.5363
-51.7293
-36.1781
-29.2477
-17.8065
-9.44437
-4.73214
-3.28125
-0.742148
26.619
26.1477
26.0698
25.8065
24.6033
21.2695
12.7167
-10.793
-56.5409
-81.1076
-91.5956
-73.8915
-49.0009
-36.4519
-28.2361
-18.69
-10.8559
-6.11409
-3.85123
-1.2429
25.2353
24.785
24.3227
23.4514
21.3575
16.9653
7.4248
-12.0196
-47.6903
-68.2923
-77.1935
-64.9352
-47.4048
-36.0018
-27.7421
-19.2114
-11.9921
-7.16153
-4.25139
-1.64286
23.8843
23.4261
22.6374
21.2451
18.4908
13.3538
3.7061
-13.2021
-41.2069
-58.822
-66.3232
-58.9718
-45.3616
-35.0937
-27.1446
-19.4746
-12.769
-7.96893
-4.59988
-1.9624
22.5846
22.1053
21.0444
19.2286
15.9862
10.4506
0.944365
-13.8248
-36.1034
-51.116
-58.0161
-53.1429
-42.797
-33.9512
-26.6166
-19.6508
-13.3431
-8.62814
-4.86396
-2.20565
21.3609
20.8544
19.5709
17.4225
13.8297
8.08124
-1.01875
-14.1129
-32.175
-45.0933
-51.215
-48.4624
-40.64
-32.9535
-26.1246
-19.7125
-13.7183
-9.11519
-5.05366
-2.39579
20.2356
19.6975
18.2368
15.8299
11.9986
6.18707
-2.49436
-14.2186
-29.1482
-40.2909
-45.8709
-44.4174
-38.3968
-31.797
-25.5303
-19.6501
-13.9469
-9.48224
-5.20476
-2.54357
19.2233
18.6523
17.0534
14.4503
10.4656
4.65062
-3.56235
-14.1582
-26.7774
-36.5073
-41.5966
-41.0407
-36.458
-30.8567
-25.0574
-19.5996
-14.1192
-9.76561
-5.32378
-2.65726
18.3343
17.734
16.0296
13.2828
9.20508
3.45295
-4.34732
-14.0287
-24.9163
-33.5304
-38.1961
-38.287
-34.7763
-29.9189
-24.5888
-19.4535
-14.1805
-9.95054
-5.40035
-2.74043
17.5781
16.954
15.1708
12.3218
8.19866
2.52753
-4.91345
-13.873
-23.4608
-31.2795
-35.5609
-36.0415
-33.3811
-29.1182
-24.1597
-19.3417
-14.2322
-10.101
-5.46901
-2.80958
16.9634
16.3208
14.4804
11.5592
7.41421
1.82503
-5.31587
-13.7468
-22.3508
-29.5464
-33.5267
-34.2906
-32.2992
-28.4549
-23.8036
-19.2152
-14.2342
-10.1876
-5.50382
-2.85275
16.4962
15.8402
13.9603
10.9903
6.83681
1.30615
-5.59959
-13.6106
-21.6264
-28.2134
-32.0249
-33.1037
-31.5017
-27.9572
-23.5343
-19.1188
-14.237
-10.2563
-5.53774
-2.89045
16.1814
15.5167
13.6122
10.6128
6.45437
0.972117
-5.77047
-13.5202
-21.12
-27.4407
-31.1915
-32.1551
-30.9366
-27.608
-23.3432
-19.0452
-14.2274
-10.2905
-5.55163
-2.91057
16.0234
15.3537
13.437
10.4231
6.26128
0.80013
-5.86352
-13.5037
-20.8557
-27.0727
-30.7408
-31.6638
-30.7084
-27.4421
-23.2459
-19.0059
-14.2227
-10.3092
-5.55957
-2.92289
37.1894
30.2853
34.4063
35.3305
39.0841
47.3039
32.8564
30.2841
32.8053
34.3126
37.8422
44.5301
54.0764
66.7722
-34.6098
-20.079
-6.87824
0.257117
1.48303
0.876025
30.6363
29.7184
31.0962
32.8839
35.3774
39.2675
40.4288
34.8457
-32.8615
-35.5005
-19.3947
-6.62045
-1.22697
-0.977348
0.717815
29.3542
28.626
29.5052
30.5975
31.7292
32.3668
28.5781
14.5585
-66.0728
-104.935
-49.0284
-34.7581
-30.7123
-17.4096
-7.65486
-3.4447
-2.78822
-0.272483
27.9798
27.4185
27.7742
28.1474
27.9759
26.3292
18.9362
-5.64633
-57.8088
-92.3691
-118.664
-89.4139
-51.4116
-36.7808
-29.3308
-18.1417
-9.53898
-4.81051
-3.44812
-0.925105
26.6027
26.1073
26.0189
25.715
24.4843
21.0861
12.3526
-10.8838
-56.1926
-80.8718
-90.704
-73.5863
-48.6964
-36.3754
-28.2481
-18.851
-10.9097
-6.16269
-3.97037
-1.37756
25.2209
24.7497
24.2784
23.3754
21.268
16.8344
7.24316
-11.9982
-47.3936
-68.0239
-76.7549
-64.748
-47.3257
-35.9142
-27.7478
-19.3093
-12.0235
-7.17474
-4.32405
-1.74566
23.8724
23.397
22.6008
21.1858
18.4246
13.3382
3.63855
-13.1436
-40.9861
-58.6115
-66.1503
-58.8784
-45.3552
-35.0757
-27.1633
-19.5412
-12.7898
-7.95898
-4.62686
-2.04094
22.576
22.0855
21.0188
19.1844
15.9375
10.436
0.945517
-13.7802
-35.9509
-50.9636
-57.8652
-53.0258
-42.8056
-33.9448
-26.6113
-19.6884
-13.3543
-8.61154
-4.87395
-2.26551
21.3556
20.8437
19.5556
17.3889
13.7933
8.06584
-1.02908
-14.0791
-32.0813
-44.9851
-51.1065
-48.3476
-40.6109
-32.9417
-26.1108
-19.7349
-13.7261
-9.09978
-5.0593
-2.43954
20.2323
19.6905
18.2257
15.8032
11.9707
6.15695
-2.49462
-14.1821
-29.1075
-40.2217
-45.8064
-44.3223
-38.3572
-31.7872
-25.5198
-19.6647
-13.9529
-9.46904
-5.20686
-2.57636
19.2207
18.6471
17.0451
14.4302
10.4442
4.63663
-3.56955
-14.142
-26.7522
-36.4676
-41.5639
-40.9765
-36.4294
-30.821
-25.0453
-19.6136
-14.1212
-9.75373
-5.32403
-2.6822
18.3323
17.7301
16.0235
13.2681
9.19005
3.44393
-4.34688
-14.0175
-24.8993
-33.5064
-38.1779
-38.2443
-34.7601
-29.8897
-24.5524
-19.4601
-14.1811
-9.94053
-5.3996
-2.75913
17.5769
16.9513
15.1665
12.3115
8.18732
2.52342
-4.90877
-13.8633
-23.45
-31.2642
-35.5521
-36.0182
-33.372
-29.1106
-24.1315
-19.34
-14.2307
-10.0925
-5.46773
-2.82306
16.9625
16.3189
14.4777
11.5528
7.4105
1.82431
-5.30868
-13.7392
-22.3447
-29.5371
-33.5221
-34.2759
-32.3008
-28.4543
-23.7999
-19.2133
-14.233
-10.1815
-5.50271
-2.86217
16.4957
15.8391
13.9589
10.987
6.8344
1.30963
-5.5924
-13.6043
-21.6227
-28.2085
-32.0232
-33.0953
-31.5029
-27.9584
-23.5301
-19.1153
-14.2348
-10.2517
-5.53657
-2.89625
16.1813
15.5163
13.6117
10.6117
6.45439
0.975665
-5.76464
-13.5153
-21.1175
-27.4384
-31.1921
-32.15
-30.9372
-27.6095
-23.3384
-19.0422
-14.225
-10.2882
-5.55084
-2.91336
16.0234
15.3537
13.4373
10.4236
6.26309
0.803452
-5.85907
-13.5004
-20.8541
-27.0714
-30.7422
-31.6617
-30.7088
-27.4414
-23.2426
-19.0041
-14.2223
-10.3097
-5.56061
-2.92588
37.2249
30.2967
34.3346
35.2224
39.1318
47.4067
32.8732
30.2881
32.7892
34.2867
37.8504
44.5794
54.1391
67.0799
-33.1572
-20.7144
-7.339
0.462997
1.30095
1.1103
30.6447
29.7313
31.096
32.8694
35.3726
39.2202
40.1624
35.2233
-35.0774
-33.8871
-20.1137
-6.98519
-1.84259
-0.979328
0.553341
29.3603
28.6352
29.5124
30.5842
31.722
32.3435
28.3702
14.7399
-66.2856
-105.791
-49.1266
-35.3778
-29.8262
-17.7361
-7.88874
-3.69398
-2.74495
-0.353262
27.9837
27.4244
27.7826
28.1373
27.9705
26.3003
18.7735
-5.6687
-58.1851
-92.7426
-118.523
-89.2393
-51.2031
-37.0823
-28.9743
-18.2831
-9.65718
-4.95521
-3.47562
-0.95679
26.6057
26.1114
26.0263
25.7061
24.4791
21.0602
12.2593
-10.924
-56.269
-80.9598
-90.4896
-73.597
-48.5951
-36.5165
-28.115
-18.8977
-10.9926
-6.27519
-4.00132
-1.40069
25.2233
24.7532
24.285
23.3671
21.2627
16.8162
7.19745
-12.0273
-47.388
-68.086
-76.8004
-64.7836
-47.1722
-35.9415
-27.7525
-19.3505
-12.0732
-7.25446
-4.36633
-1.76373
23.8741
23.3996
22.6057
21.1784
18.4168
13.3198
3.63099
-13.1529
-40.9799
-58.6441
-66.1811
-58.923
-45.1768
-34.9924
-27.172
-19.5637
-12.8202
-8.03605
-4.66811
-2.05693
22.5766
22.0857
21.0198
19.1764
15.9269
10.4264
0.938327
-13.7974
-35.9421
-50.9803
-57.8518
-53.0319
-42.7098
-33.8599
-26.6138
-19.7019
-13.3736
-8.67203
-4.90835
-2.28117
21.3553
20.8419
19.5534
17.3792
13.7828
8.0654
-1.04054
-14.0908
-32.073
-44.9876
-51.1086
-48.3303
-40.5472
-32.8918
-26.1088
-19.7449
-13.7412
-9.14712
-5.08797
-2.45343
20.2318
19.6885
18.2232
15.7945
11.9618
6.15906
-2.50602
-14.1911
-29.1029
-40.2169
-45.8161
-44.3112
-38.3051
-31.7502
-25.5163
-19.6708
-13.9639
-9.50556
-5.2288
-2.58805
19.2203
18.6455
17.0431
14.4234
10.4376
4.63612
-3.5793
-14.1472
-26.7521
-36.4628
-41.5734
-40.9632
-36.4119
-30.7777
-25.0426
-19.6124
-14.1285
-9.78243
-5.3412
-2.69188
18.332
17.7288
16.0219
13.2628
9.18559
3.44051
-4.35278
-14.0182
-24.8987
-33.5031
-38.1866
-38.2323
-34.7496
-29.8598
-24.5431
-19.4601
-14.1859
-9.96258
-5.4127
-2.76653
17.5766
16.9503
15.1653
12.3075
8.18603
2.51975
-4.91243
-13.8633
-23.4501
-31.2621
-35.5606
-36.0071
-33.3657
-29.0783
-24.1283
-19.3432
-14.2338
-10.1091
-5.4779
-2.82866
16.9623
16.3182
14.4768
11.5501
7.40987
1.82263
-5.30975
-13.7388
-22.3456
-29.536
-33.5283
-34.2699
-32.2943
-28.4266
-23.7874
-19.2159
-14.2352
-10.1943
-5.51071
-2.86622
16.4955
15.8387
13.9583
10.9855
6.83281
1.30882
-5.59263
-13.6033
-21.6232
-28.2084
-32.0265
-33.0921
-31.498
-27.9388
-23.5162
-19.1154
-14.2352
-10.2612
-5.54241
-2.89914
16.1812
15.516
13.6113
10.6108
6.45323
0.975188
-5.76445
-13.514
-21.1177
-27.4382
-31.1949
-32.1475
-30.9348
-27.5981
-23.3276
-19.0418
-14.2242
-10.2947
-5.55454
-2.91507
16.0234
15.3535
13.437
10.4232
6.26249
0.8034
-5.85868
-13.4991
-20.8544
-27.0712
-30.7442
-31.6596
-30.7083
-27.4369
-23.2371
-19.0049
-14.2229
-10.3159
-5.56425
-2.92746
37.2382
30.2931
34.267
35.1791
39.1738
47.4164
32.8775
30.2845
32.7655
34.2597
37.8424
44.5785
54.0568
67.1186
-31.8108
-21.1019
-7.87857
0.562421
1.61073
1.15935
30.6532
29.7362
31.0969
32.874
35.389
39.2767
40.2273
35.1242
-37.4985
-32.5914
-20.5135
-7.6725
-1.64399
-0.56483
0.647619
29.3683
28.645
29.5234
30.5971
31.7456
32.4179
28.4462
14.8076
-66.4065
-106.162
-49.5114
-35.4575
-28.8734
-17.9741
-8.13182
-3.5679
-2.58946
-0.284776
27.9903
27.4348
27.7962
28.1521
27.9945
26.3571
18.797
-5.64933
-58.315
-92.9739
-118.28
-89.0984
-51.1053
-37.136
-28.5088
-18.3829
-9.75326
-4.94408
-3.40188
-0.901887
26.6116
26.1203
26.039
25.7191
24.4991
21.1022
12.2761
-10.8976
-56.3999
-81.0679
-90.5822
-73.7399
-48.5844
-36.5676
-27.8859
-18.9072
-11.0528
-6.28557
-3.9539
-1.36013
25.2282
24.7606
24.2963
23.3781
21.2783
16.846
7.20856
-12.0299
-47.4559
-68.1903
-76.9385
-64.8851
-47.0461
-36.0024
-27.6486
-19.3569
-12.1008
-7.2654
-4.34805
-1.73528
23.878
23.4055
22.6148
21.1874
18.4277
13.3303
3.63267
-13.1686
-41.029
-58.7211
-66.2256
-59.0162
-45.099
-34.9861
-27.11
-19.5561
-12.8301
-8.05222
-4.66402
-2.03541
22.5793
22.0895
21.026
19.1827
15.9335
10.4314
0.932797
-13.8204
-35.9735
-51.0352
-57.8762
-53.0897
-42.6841
-33.8589
-26.5895
-19.6988
-13.3763
-8.68748
-4.90954
-2.26594
21.357
20.8438
19.5573
17.3835
13.7872
8.07117
-1.04423
-14.1061
-32.0911
-45.019
-51.1394
-48.376
-40.5283
-32.9011
-26.0968
-19.7432
-13.7409
-9.16098
-5.09079
-2.44247
20.2329
19.6896
18.2258
15.7975
11.9649
6.16548
-2.50737
-14.2018
-29.1129
-40.234
-45.843
-44.329
-38.2999
-31.7511
-25.5093
-19.6709
-13.9621
-9.51684
-5.23201
-2.58068
19.2209
18.6462
17.045
14.4255
10.4401
4.6407
-3.58051
-14.1539
-26.7591
-36.4714
-41.5937
-40.9713
-36.414
-30.775
-25.0331
-19.6093
-14.1263
-9.79213
-5.34405
-2.6865
18.3324
17.7293
16.0234
13.2642
9.18749
3.44267
-4.3544
-14.0214
-24.9026
-33.5069
-38.2022
-38.236
-34.7517
-29.8484
-24.5355
-19.4583
-14.1836
-9.97054
-5.41568
-2.76258
17.5769
16.9506
15.1664
12.3083
8.18815
2.5211
-4.91428
-13.8657
-23.4532
-31.2637
-35.5735
-36.0054
-33.3678
-29.0603
-24.1275
-19.3412
-14.2321
-10.1159
-5.48069
-2.8257
16.9625
16.3184
14.4775
11.5507
7.41121
1.8231
-5.3113
-13.7403
-22.3482
-29.5368
-33.537
-34.2687
-32.2954
-28.4227
-23.7819
-19.2142
-14.2336
-10.1998
-5.51339
-2.86403
16.4956
15.8388
13.9587
10.9857
6.83301
1.30808
-5.59436
-13.6043
-21.6249
-28.2095
-32.031
-33.0913
-31.4993
-27.9379
-23.5159
-19.1148
-14.2335
-10.2655
-5.54484
-2.89776
16.1812
15.516
13.6114
10.6107
6.45292
0.974194
-5.76591
-13.5147
-21.1191
-27.4387
-31.1982
-32.1465
-30.9359
-27.597
-23.3282
-19.0421
-14.2224
-10.2976
-5.55652
-2.91416
16.0234
15.3535
13.4369
10.4229
6.26177
0.802398
-5.85996
-13.4997
-20.8556
-27.0715
-30.7467
-31.6581
-30.7098
-27.4392
-23.2378
-19.0056
-14.2213
-10.3181
-5.56594
-2.92669
37.2407
30.288
34.2303
35.1758
39.1799
47.3971
32.8782
30.2811
32.7486
34.2495
37.8374
44.5752
54.0377
67.3664
-30.6281
-21.1995
-8.45257
0.684871
2.0234
1.31765
30.6563
29.7304
31.0914
32.8715
35.3887
39.2904
40.2391
35.1417
-39.1004
-31.2213
-20.5857
-8.28338
-1.46933
-0.249889
0.719831
29.3703
28.6423
29.5219
30.598
31.7453
32.4402
28.4479
14.8151
-66.5141
-106.29
-51.1446
-35.8188
-28.0701
-18.1283
-8.38156
-3.46041
-2.47966
-0.239035
27.9922
27.4339
27.7964
28.1548
27.9956
26.3765
18.7824
-5.65165
-58.3936
-93.0715
-118.127
-88.9566
-51.0801
-37.323
-28.1546
-18.4633
-9.86598
-4.91069
-3.33932
-0.86002
26.6137
26.1202
26.0402
25.7219
24.5006
21.1174
12.2675
-10.8913
-56.4663
-81.0939
-90.5847
-73.8177
-48.604
-36.6538
-27.6972
-18.915
-11.1271
-6.26756
-3.90216
-1.32332
25.2299
24.7606
24.2979
23.3808
21.2806
16.8572
7.20316
-12.0344
-47.4868
-68.2189
-76.9763
-64.9247
-47.0098
-36.048
-27.5485
-19.3582
-12.1378
-7.25309
-4.31883
-1.70906
23.8795
23.4056
22.6164
21.19
18.4303
13.3355
3.62512
-13.1761
-41.051
-58.7491
-66.2188
-59.0802
-45.0584
-35.0223
-27.0569
-19.5468
-12.8428
-8.04864
-4.64577
-2.01411
22.5807
22.0898
21.0277
19.1852
15.9356
10.4346
0.926917
-13.8303
-35.9862
-51.0578
-57.8775
-53.1371
-42.6379
-33.8967
-26.5705
-19.6943
-13.3823
-8.68496
-4.89812
-2.25032
21.3582
20.8444
19.5592
17.3861
13.7891
8.074
-1.04758
-14.1127
-32.0981
-45.0331
-51.1455
-48.4183
-40.5076
-32.9277
-26.0855
-19.7386
-13.7415
-9.1602
-5.08471
-2.43113
20.2338
19.6901
18.2275
15.7997
11.9665
6.16732
-2.50867
-14.2064
-29.1174
-40.2426
-45.8522
-44.3478
-38.29
-31.7651
-25.5044
-19.6695
-13.9617
-9.51619
-5.22786
-2.57257
19.2215
18.6467
17.0464
14.4272
10.4415
4.64243
-3.5814
-14.1574
-26.7623
-36.4755
-41.6035
-40.9818
-36.4065
-30.7845
-25.0304
-19.6083
-14.1248
-9.79185
-5.34138
-2.68067
18.3327
17.7297
16.0243
13.2653
9.18836
3.44359
-4.35514
-14.0236
-24.9043
-33.5078
-38.2112
-38.2416
-34.7461
-29.8526
-24.5332
-19.4585
-14.1822
-9.97012
-5.41345
-2.75819
17.5771
16.9509
15.167
12.3089
8.18883
2.52199
-4.91475
-13.8671
-23.4547
-31.2633
-35.5825
-36.0061
-33.3641
-29.0629
-24.1235
-19.339
-14.2303
-10.1158
-5.47915
-2.82236
16.9627
16.3185
14.4779
11.5511
7.41174
1.82359
-5.31163
-13.741
-22.3497
-29.5361
-33.5435
-34.2689
-32.2938
-28.4205
-23.7797
-19.2128
-14.2322
-10.1997
-5.51214
-2.86137
16.4957
15.8389
13.9589
10.9859
6.83307
1.30795
-5.59502
-13.6048
-21.6259
-28.2098
-32.0344
-33.0912
-31.4988
-27.9342
-23.5168
-19.1144
-14.2322
-10.2656
-5.54411
-2.8959
16.1812
15.5161
13.6115
10.6107
6.4528
0.973937
-5.76658
-13.5151
-21.1202
-27.4389
-31.201
-32.1463
-30.9355
-27.5923
-23.3294
-19.0418
-14.2213
-10.2981
-5.55634
-2.91272
16.0234
15.3535
13.437
10.4227
6.26147
0.801893
-5.86085
-13.5001
-20.8566
-27.0717
-30.7489
-31.6572
-30.7102
-27.437
-23.238
-19.0051
-14.22
-10.3185
-5.56602
-2.92543
37.2401
30.2824
34.216
35.1907
39.174
47.389
32.8771
30.2782
32.7369
34.2469
37.8343
44.5654
54.0154
67.5334
-29.7122
-20.9558
-9.00125
0.732404
2.50857
1.4123
30.657
29.7235
31.0863
32.8672
35.3816
39.2806
40.2
35.1711
-40.1889
-29.8758
-20.4021
-8.80665
-1.48154
0.00869399
0.758507
29.3702
28.6383
29.5181
30.5943
31.7353
32.4312
28.397
14.805
-66.5521
-106.039
-53.0086
-36.2851
-27.4315
-18.1416
-8.63055
-3.48338
-2.42494
-0.219326
27.9924
27.431
27.7933
28.1518
27.9867
26.3699
18.7407
-5.65974
-58.4022
-93.053
-118.025
-88.7969
-51.1104
-37.5889
-27.8709
-18.4648
-9.99065
-4.92663
-3.30714
-0.836181
26.614
26.118
26.038
25.7194
24.4934
21.113
12.2407
-10.8981
-56.4849
-81.094
-90.537
-73.8456
-48.6326
-36.7817
-27.5521
-18.8904
-11.2161
-6.27494
-3.87047
-1.29984
25.2301
24.7589
24.2966
23.379
21.2756
16.8549
7.18664
-12.0418
-47.4924
-68.221
-76.9654
-64.9386
-46.966
-36.1125
-27.4815
-19.3482
-12.1884
-7.25846
-4.30141
-1.69335
23.8797
23.4044
22.6156
21.1884
18.427
13.3338
3.61329
-13.1814
-41.0558
-58.7566
-66.1848
-59.1244
-45.0319
-35.066
-27.0255
-19.5339
-12.8649
-8.05702
-4.63457
-2.00025
22.581
22.0889
21.0273
19.1842
15.9327
10.4334
0.920173
-13.8364
-35.9871
-51.0632
-57.8622
-53.1701
-42.6009
-33.923
-26.5577
-19.6876
-13.3955
-8.69036
-4.89104
-2.24063
21.3586
20.8438
19.5591
17.3853
13.7869
8.07338
-1.05192
-14.1176
-32.0978
-45.0365
-51.1331
-48.451
-40.4849
-32.9455
-26.0776
-19.7324
-13.7472
-9.16379
-5.08117
-2.42441
20.234
19.6898
18.2275
15.7991
11.9648
6.16647
-2.51158
-14.2104
-29.1171
-40.2436
-45.8475
-44.3656
-38.2725
-31.774
-25.5014
-19.6672
-13.9654
-9.51837
-5.22533
-2.56756
19.2216
18.6465
17.0464
14.4267
10.4402
4.642
-3.58351
-14.1606
-26.7627
-36.475
-41.6032
-40.9942
-36.3936
-30.7905
-25.0298
-19.6071
-14.1261
-9.793
-5.33982
-2.67722
18.3328
17.7296
16.0244
13.2649
9.18741
3.44296
-4.35666
-14.0256
-24.9042
-33.5062
-38.2132
-38.2488
-34.7374
-29.8562
-24.5327
-19.4587
-14.1834
-9.97082
-5.4121
-2.75553
17.5771
16.9508
15.1671
12.3085
8.18819
2.52168
-4.91567
-13.8683
-23.4549
-31.2613
-35.5871
-36.0086
-33.3589
-29.0649
-24.1237
-19.3384
-14.2306
-10.116
-5.47806
-2.82035
16.9626
16.3184
14.4779
11.5508
7.41134
1.82338
-5.31213
-13.7414
-22.3502
-29.5344
-33.5474
-34.2702
-32.2911
-28.4189
-23.7797
-19.2124
-14.2324
-10.1998
-5.51121
-2.85979
16.4957
15.8388
13.9589
10.9857
6.83268
1.30768
-5.59546
-13.605
-21.6261
-28.2094
-32.0366
-33.0918
-31.4975
-27.9318
-23.5176
-19.1139
-14.2322
-10.2657
-5.54333
-2.89473
16.1812
15.516
13.6115
10.6105
6.45256
0.973807
-5.76689
-13.515
-21.1208
-27.4384
-31.2031
-32.1468
-30.9348
-27.5892
-23.3302
-19.0409
-14.2212
-10.2984
-5.55594
-2.91167
16.0233
15.3535
13.437
10.4226
6.26127
0.801697
-5.86131
-13.5002
-20.8573
-27.0714
-30.7507
-31.6569
-30.7104
-27.4346
-23.2386
-19.0043
-14.2196
-10.3186
-5.56578
-2.92446
37.2397
30.2776
34.21
35.2104
39.17
47.4076
32.8758
30.276
32.7299
34.2481
37.833
44.5546
53.9976
67.6155
-29.1777
-20.4381
-9.45443
0.598952
2.88402
1.49918
30.6571
29.719
31.0837
32.8657
35.3759
39.2747
40.1713
35.1905
-40.7591
-28.8843
-19.9897
-9.21224
-1.55201
0.22486
0.791856
29.3696
28.6362
29.5163
30.5928
31.7288
32.4266
28.3635
14.803
-66.5498
-105.767
-54.0739
-36.6549
-26.9808
-17.98
-8.85902
-3.5512
-2.39267
-0.191067
27.9921
27.4293
27.7917
28.1498
27.9807
26.3665
18.7161
-5.65948
-58.3737
-92.9972
-117.962
-88.6848
-51.1551
-37.8267
-27.6423
-18.369
-10.1093
-4.97397
-3.27786
-0.810205
26.6139
26.1167
26.0369
25.7175
24.4881
21.1104
12.2229
-10.8996
-56.4668
-81.0869
-90.5003
-73.8553
-48.6617
-36.8958
-27.4285
-18.8235
-11.2958
-6.309
-3.84353
-1.278
25.2302
24.758
24.2958
23.3775
21.2715
16.8532
7.17368
-12.0459
-47.4877
-68.217
-76.9491
-64.9641
-46.9226
-36.1707
-27.4288
-19.3162
-12.2363
-7.28207
-4.28651
-1.68012
23.8799
23.4037
22.6151
21.1872
18.4238
13.3319
3.60385
-13.1857
-41.0543
-58.7596
-66.1524
-59.1619
-45.0122
-35.1003
-27.0025
-19.5093
-12.8879
-8.07526
-4.62593
-1.9885
22.5812
22.0884
21.0269
19.1831
15.9302
10.4317
0.914363
-13.8418
-35.9854
-51.0662
-57.8454
-53.2004
-42.5718
-33.9372
-26.546
-19.6752
-13.4107
-8.70281
-4.88658
-2.23225
21.3586
20.8433
19.5588
17.3843
13.7848
8.07225
-1.05594
-14.1223
-32.0962
-45.0393
-51.1155
-48.4823
-40.4653
-32.9545
-26.0713
-19.7239
-13.7546
-9.17173
-5.07918
-2.41856
20.234
19.6895
18.2273
15.7982
11.963
6.16548
-2.51445
-14.2145
-29.1159
-40.244
-45.8382
-44.3858
-38.2554
-31.7758
-25.4983
-19.6633
-13.9705
-9.5238
-5.22434
-2.56328
19.2216
18.6462
17.0462
14.426
10.4389
4.64133
-3.58559
-14.164
-26.7621
-36.4745
-41.5977
-41.0103
-36.3814
-30.7922
-25.0284
-19.6046
-14.1287
-9.79633
-5.33941
-2.67441
18.3328
17.7293
16.0242
13.2642
9.18644
3.44222
-4.35825
-14.0278
-24.9035
-33.5045
-38.2113
-38.2593
-34.7291
-29.856
-24.5315
-19.4579
-14.1856
-9.97328
-5.41192
-2.75344
17.5771
16.9506
15.167
12.3081
8.18754
2.5212
-4.91676
-13.8698
-23.4549
-31.2591
-35.5886
-36.0141
-33.354
-29.0638
-24.1243
-19.3381
-14.2317
-10.1174
-5.47789
-2.81895
16.9626
16.3183
14.4778
11.5504
7.41088
1.82303
-5.31285
-13.742
-22.3504
-29.5328
-33.5491
-34.2735
-32.2882
-28.4175
-23.7799
-19.2121
-14.2333
-10.2009
-5.51111
-2.85874
16.4956
15.8387
13.9588
10.9854
6.83226
1.30733
-5.59605
-13.6054
-21.6261
-28.2088
-32.0378
-33.0935
-31.4959
-27.9307
-23.5184
-19.1136
-14.2328
-10.2664
-5.54304
-2.89397
16.1812
15.5159
13.6115
10.6104
6.45226
0.97359
-5.76729
-13.5151
-21.1212
-27.4378
-31.2043
-32.1483
-30.934
-27.5874
-23.3309
-19.0403
-14.2215
-10.299
-5.55566
-2.91095
16.0233
15.3534
13.4369
10.4225
6.26101
0.801477
-5.86172
-13.5002
-20.8578
-27.0709
-30.7518
-31.6572
-30.7106
-27.4323
-23.2392
-19.004
-14.2199
-10.3189
-5.56547
-2.92375
37.2392
30.2742
34.2064
35.227
39.168
47.4312
32.8746
30.2738
32.7252
34.2511
37.8314
44.5468
53.9857
67.6602
-29.0405
-19.7385
-9.77576
0.393608
3.15416
1.59971
30.6564
29.7162
31.0814
32.8654
35.3713
39.2712
40.1587
35.2121
-41.1609
-28.4332
-19.3705
-9.48146
-1.63723
0.365822
0.821795
29.3688
28.6349
29.5151
30.5927
31.7252
32.4262
28.3511
14.8029
-66.5531
-105.642
-54.6405
-36.9874
-26.7552
-17.6734
-9.04127
-3.62417
-2.38245
-0.149822
27.9917
27.4282
27.7905
28.1492
27.9774
26.3667
18.7062
-5.65699
-58.3432
-92.9435
-117.921
-88.6038
-51.1611
-38.0295
-27.5
-18.2145
-10.2002
-5.02867
-3.24538
-0.781917
26.6136
26.116
26.0362
25.7169
24.4851
21.1105
12.2139
-10.898
-56.4422
-81.0658
-90.4761
-73.8377
-48.6758
-36.9825
-27.336
-18.7322
-11.358
-6.35408
-3.81561
-1.25702
25.2299
24.7575
24.2954
23.377
21.269
16.8532
7.16639
-12.0466
-47.4802
-68.2093
-76.9273
-64.9911
-46.8878
-36.2149
-27.3886
-19.267
-12.2746
-7.31214
-4.26646
-1.6664
23.8797
23.4033
22.6149
21.1867
18.4218
13.3312
3.59792
-13.1886
-41.0498
-58.7586
-66.1248
-59.1904
-44.9967
-35.1253
-26.9838
-19.4762
-12.9071
-8.09555
-4.61358
-1.97658
22.5811
22.0881
21.0267
19.1826
15.9285
10.4306
0.910173
-13.8459
-35.983
-51.0672
-57.8293
-53.2295
-42.5461
-33.9431
-26.5354
-19.6578
-13.4241
-8.71623
-4.87985
-2.22366
21.3586
20.843
19.5586
17.3838
13.7835
8.07154
-1.05891
-14.1262
-32.0941
-45.0426
-51.0962
-48.5131
-40.4495
-32.9594
-26.067
-19.7134
-13.7612
-9.17966
-5.07538
-2.41223
20.234
19.6893
18.2271
15.7978
11.962
6.16483
-2.51655
-14.218
-29.1145
-40.2451
-45.8267
-44.4076
-38.2414
-31.7749
-25.4954
-19.6579
-13.975
-9.52917
-5.2224
-2.55867
19.2216
18.646
17.0461
14.4256
10.4381
4.6409
-3.58705
-14.1669
-26.7611
-36.4749
-41.5893
-41.029
-36.3711
-30.7918
-25.0271
-19.6014
-14.1311
-9.79945
-5.33832
-2.67143
18.3328
17.7291
16.0241
13.2639
9.18584
3.44174
-4.3594
-14.03
-24.9027
-33.5037
-38.2064
-38.2723
-34.7218
-29.8543
-24.5302
-19.4565
-14.1875
-9.97549
-5.41139
-2.75136
17.5771
16.9504
15.1669
12.3078
8.1871
2.52084
-4.91759
-13.8714
-23.4546
-31.2576
-35.5871
-36.0223
-33.3496
-29.0616
-24.1243
-19.3376
-14.2327
-10.1187
-5.47738
-2.81757
16.9625
16.3182
14.4778
11.5502
7.41056
1.82272
-5.31347
-13.7428
-22.3505
-29.5315
-33.5489
-34.2787
-32.2855
-28.4156
-23.7797
-19.2116
-14.234
-10.2019
-5.51077
-2.8577
16.4956
15.8386
13.9588
10.9852
6.83196
1.307
-5.59663
-13.6061
-21.626
-28.2082
-32.0379
-33.0963
-31.4944
-27.9293
-23.5189
-19.1135
-14.2335
-10.267
-5.54255
-2.89329
16.1811
15.5158
13.6114
10.6102
6.45199
0.973342
-5.76773
-13.5153
-21.1214
-27.4371
-31.2046
-32.1506
-30.9333
-27.5859
-23.3316
-19.0401
-14.2221
-10.2994
-5.55527
-2.91042
16.0233
15.3533
13.4369
10.4223
6.26074
0.801225
-5.86215
-13.5003
-20.8581
-27.0704
-30.7522
-31.6582
-30.7106
-27.4307
-23.2394
-19.0038
-14.2203
-10.3191
-5.56511
-2.9232
37.2383
30.2716
34.2034
35.2373
39.1663
47.4403
32.8734
30.2713
32.722
34.253
37.8281
44.5418
53.9766
67.656
-29.2786
-18.824
-9.92086
0.0820725
3.30671
1.7135
30.6551
29.7142
31.0786
32.865
35.3663
39.2652
40.1519
35.2279
-41.4008
-28.5154
-18.4612
-9.58431
-1.73526
0.398509
0.841848
29.3677
28.6336
29.5134
30.5924
31.7213
32.4229
28.3425
14.8036
-66.5454
-105.582
-54.8016
-37.3396
-26.7449
-17.2857
-9.15965
-3.71314
-2.39457
-0.112065
27.9911
27.427
27.7889
28.1483
27.9738
26.3644
18.6987
-5.65586
-58.3164
-92.8971
-117.89
-88.4871
-51.1066
-38.2139
-27.446
-18.0351
-10.2586
-5.08647
-3.21791
-0.76003
26.613
26.1152
26.0351
25.7161
24.4821
21.1088
12.2071
-10.8972
-56.4259
-81.0365
-90.4565
-73.7935
-48.6662
-37.0554
-27.2937
-18.628
-11.401
-6.4019
-3.79278
-1.24213
25.2294
24.7569
24.2946
23.3763
21.2665
16.852
7.16125
-12.0464
-47.4727
-68.1986
-76.9018
-65.0063
-46.8519
-36.2458
-27.37
-19.2093
-12.3029
-7.34326
-4.24395
-1.65515
23.8794
23.4029
22.6143
21.1861
18.4199
13.33
3.59377
-13.1901
-41.0438
-58.7523
-66.1024
-59.2013
-44.9789
-35.1442
-26.9751
-19.4402
-12.9229
-8.11534
-4.59891
-1.96683
22.5809
22.0877
21.0263
19.1821
15.927
10.4296
0.907149
-13.8483
-35.9798
-51.0648
-57.8127
-53.2526
-42.5233
-33.9459
-26.5287
-19.6383
-13.4349
-8.72913
-4.87081
-2.21617
21.3585
20.8427
19.5583
17.3835
13.7823
8.07077
-1.06105
-14.129
-32.0913
-45.045
-51.0753
-48.5378
-40.4363
-32.9616
-26.0652
-19.7021
-13.7665
-9.18687
-5.0697
-2.40648
20.2339
19.689
18.2269
15.7975
11.9612
6.16411
-2.51812
-14.2207
-29.1128
-40.2459
-45.8129
-44.4277
-38.2298
-31.7722
-25.4934
-19.6518
-13.9786
-9.53392
-5.2193
-2.55441
19.2215
18.6458
17.0459
14.4254
10.4374
4.64038
-3.58807
-14.1693
-26.7597
-36.4757
-41.5777
-41.0473
-36.3627
-30.7901
-25.0266
-19.5983
-14.1331
-9.80175
-5.33622
-2.66853
18.3327
17.729
16.024
13.2637
9.18536
3.44126
-4.36023
-14.0318
-24.9016
-33.5034
-38.1986
-38.286
-34.7155
-29.8516
-24.5293
-19.4548
-14.189
-9.97701
-5.41018
-2.74928
17.577
16.9503
15.1668
12.3076
8.18674
2.52047
-4.91822
-13.8729
-23.4541
-31.2566
-35.5827
-36.0318
-33.3457
-29.0589
-24.1243
-19.3369
-14.2335
-10.1194
-5.47633
-2.81618
16.9624
16.3181
14.4777
11.55
7.41028
1.82243
-5.31397
-13.7436
-22.3503
-29.5305
-33.5467
-34.2849
-32.283
-28.4133
-23.7794
-19.2111
-14.2347
-10.2023
-5.50999
-2.85674
16.4955
15.8385
13.9587
10.9851
6.8317
1.30671
-5.59708
-13.6068
-21.6256
-28.2076
-32.037
-33.1
-31.4929
-27.9274
-23.5191
-19.1135
-14.2342
-10.2672
-5.54171
-2.8927
16.1811
15.5158
13.6113
10.61
6.45176
0.973114
-5.76808
-13.5155
-21.1214
-27.4363
-31.204
-32.1535
-30.9326
-27.5841
-23.3317
-19.0401
-14.2225
-10.2996
-5.55466
-2.90999
16.0232
15.3532
13.4368
10.4222
6.2605
0.800989
-5.86253
-13.5005
-20.8583
-27.0698
-30.7519
-31.6597
-30.7106
-27.4293
-23.2393
-19.0037
-14.2207
-10.3193
-5.56466
-2.92274
37.237
30.2693
34.2003
35.2417
39.1642
47.4374
32.872
30.2686
32.7189
34.253
37.8237
44.5347
53.9672
67.625
-29.8751
-17.834
-9.90038
-0.219901
3.34217
1.82569
30.6535
29.7126
31.0754
32.8641
35.361
39.2573
40.1439
35.2344
-41.3993
-29.1444
-17.4534
-9.57784
-1.8584
0.342769
0.846869
29.3663
28.6322
29.5115
30.5914
31.717
32.4173
28.3338
14.8034
-66.5221
-105.542
-54.7737
-37.7139
-26.8732
-16.8583
-9.20151
-3.82585
-2.42897
-0.0875167
27.9901
27.4256
27.7871
28.1469
27.9698
26.36
18.6919
-5.65633
-58.2896
-92.8606
-117.883
-88.4104
-51.0045
-38.3684
-27.4753
-17.8311
-10.2879
-5.15077
-3.20137
-0.750198
26.6122
26.1142
26.0337
25.715
24.4789
21.1056
12.2011
-10.8955
-56.4166
-81.0144
-90.4373
-73.7337
-48.6314
-37.1142
-27.3055
-18.5128
-11.4237
-6.44895
-3.77877
-1.23663
25.2288
24.7561
24.2935
23.3753
21.2641
16.8497
7.15699
-12.0455
-47.4663
-68.1891