/*--------------------------------*- C++ -*----------------------------------*\
  =========                 |
  \\      /  F ield         | OpenFOAM: The Open Source CFD Toolbox
   \\    /   O peration     | Website:  https://openfoam.org
    \\  /    A nd           | Version:  10
     \\/     M anipulation  |
\*---------------------------------------------------------------------------*/
FoamFile
{
    format      ascii;
    class       surfaceScalarField;
    location    "2000";
    object      phi;
}
// * * * * * * * * * * * * * * * * * * * * * * * * * * * * * * * * * * * * * //

dimensions      [0 3 -1 0 0 0 0];

internalField   nonuniform List<scalar> 
164653
(
-2.53765
28.0027
80.4036
2.48683
0.307566
-27.6123
27.4936
77.0059
-0.0447655
0.201368
-0.12997
-0.249402
0.147414
-27.4022
27.1464
77.6213
0.258766
0.279759
-0.206401
-0.149218
-0.637356
-7.12253
7.201
20.3673
0.667808
-0.117107
-6.33242
6.12026
18.1333
0.251957
-3.28808
4.8681
0.0783186
15.6002
-0.0643358
-15.0406
114.37
14.8666
330.444
12.2337
-114.062
113.433
-11.5733
326.629
6.47866
-112.522
112.303
-5.83594
324.554
-3.05173
-112.566
111.587
12.4014
327.28
-3.02684
-2.31363
-3.07958
-3.36377
-110.544
108.957
17.3231
326.485
-3.72707
-4.524
-4.95121
-4.8095
-106.305
102.032
26.589
320.429
-5.44293
-5.29048
-6.36835
-16.4493
75.7453
310.568
-10.4432
-19.4291
-11.9443
-90.8125
22.6262
22.5779
23.1133
23.1768
-4.44016
-20.1056
21.8181
79.9508
-6.71277
-5.89833
-8.49284
4.76843
6.7226
6.91958
5.14197
-0.77775
1.07743
5.04758
0.0205193
-0.757801
-2.40037
54.0039
0.585178
2.16844
0.561435
-1.97936
1.46403
-0.0678784
-0.0505654
0.393218
0.301219
-1.01084
5.39312
60.4546
-2.65588
0.260407
0.301994
0.29784
-0.997715
-1.10317
-1.13718
0.411521
-8.26699
9.52261
61.0463
-1.41755
0.418455
-0.144218
-0.219421
0.329513
-12.6349
13.4735
64.0763
-1.81322
0.368755
0.225465
0.162284
2.25053
-17.2177
17.9819
70.2369
-2.77766
469.182
-13.2943
1357.27
-14.8759
5.66722
7.04199
27.3262
464.437
-50.9881
1346.32
11.0486
11.4661
19.5149
17.1597
465.177
-11.857
1340.14
5.14496
-6.4536
11.8945
6.14863
460.235
29.3224
1347.1
-12.9185
-15.1621
5.39974
-0.317299
451.783
46.547
1350.1
-18.6959
-21.6683
-3.20853
1.37006
423.446
159.541
1328.42
-29.9444
-64.5811
-17.0925
-50.7587
103.22
253.486
1340.59
105.007
99.2853
102.117
-80.7559
-66.1929
-58.0621
-90.2957
-26.8813
110.906
331.06
27.051
26.3279
24.3571
27.5907
-29.2584
-29.2272
-35.8838
-0.238028
-0.157912
4.2868
0.344921
4.01268
-58.4874
78.9306
-39.983
240.303
4.42392
5.11624
7.40983
7.59846
-89.5297
97.7575
-35.3704
283.654
6.71231
7.41489
6.33507
21.6079
-104.012
108.313
-26.4317
308.143
1.87449
-106.742
115.453
4.66282
298.835
18.435
-117.744
119.062
-19.945
320.362
4.80319
-120.388
120.566
-5.12806
320.859
476.009
-12.4011
1374.69
473.543
-45.7367
1375.43
472.539
-7.83076
1371.95
470.109
32.7606
1374.59
469.736
61.4301
1371.96
464.23
177.683
1374.28
124.684
221.281
1394.5
131.32
110.808
124.886
-80.4771
121.077
76.0606
331.613
-38.7083
-33.9782
37.0518
79.6214
35.8491
-12.2468
9.52091
2.69924
18.9674
0.10974
1.68115
-7.22934
31.7334
-8.72052
70.4841
2.1481
1.67233
2.13608
-7.23087
-7.80651
-7.94657
4.54839
-32.6228
135.175
-6.96401
302.127
-3.5723
2.65862
-0.568438
-34.1815
-33.4451
-35.292
543.378
-201.86
1256.29
44.6929
40.9741
54.4563
56.7284
-120.923
-139.65
-120.297
-140.102
530.361
-164.332
1338.96
35.4674
32.3419
54.3085
49.1075
534.389
-59.9436
1319.5
27.2523
-2.258
39.2132
12.4421
519.474
-57.8457
1366.3
-17.7087
8.36728
22.2698
33.8601
520.461
-24.6938
1311.8
20.4187
10.3825
27.1807
0.478826
4.31845
1352.3
5.0531
12.9813
-6.34964
-12.8813
483.123
-11.5441
1395.29
481.731
-41.1644
1397.11
481.719
-4.4952
1394.31
481.09
34.8821
1396.27
480.377
62.8883
1393.56
486.997
170.949
1397.67
513.229
193.107
1375
137.701
319.501
1381.3
-85.9909
-127.667
-89.4568
-92.3356
137.594
152.44
151.717
-135.92
150.294
126.555
337.999
-12.6627
163.098
46.1465
329.909
-12.1234
-12.9715
-11.922
-160.476
-6.89199
-42.4388
43.2991
83.325
6.00973
4.46793
-162.713
156.684
3.55708
339.483
4.7825
-8.17933
-7.83157
30.3111
-150.503
146.528
-26.7652
330.204
572.621
-108.113
1338.17
9.53587
28.2705
15.1258
25.9579
-136.509
-139.607
-147.418
-142.809
560.157
-178.168
1356.94
541.793
-130.422
1362.85
523.637
-78.2832
1369.04
531.634
-107.848
1377.15
532.391
-25.0314
1376.69
2.36225
1382.51
489.188
-10.6807
1412.87
488.562
-37.0091
1415.03
489.521
-1.88882
1412.68
490.646
35.5665
1414.37
492.97
61.7024
1411.73
504.174
160.043
1415.95
529.91
166.551
1397.22
599.2
247.834
1396.72
631.412
191.515
1398.95
-115.131
-65.1768
-40.2322
-13.1333
162.888
107.999
1355.22
-43.2904
-35.6608
-19.1917
-17.0377
162.021
164.018
162.525
-7.53337
163.887
4.47066
344.152
612.251
-54.5041
1411.81
-7.33747
12.6226
8.1369
31.1618
-161.25
-160.371
-160.798
-159.495
614.486
-26.4229
1383.94
23.383
10.131
-7.58541
-0.0170618
582.5
-42.9641
1379.94
564.033
-161.108
1389.85
552.356
-117.814
1388.94
548.219
-72.2273
1393.08
540.405
-101.561
1401.48
539.721
-23.7688
1401.79
-19.568
1407.35
494.439
-9.81238
1428.11
494.399
-33.2413
1430.32
496.239
-0.0572803
1428.26
505.701
48.5869
1429.87
503.163
86.7436
1426.69
524.482
171.19
1432.24
542.053
197.245
1417.38
581.667
209.888
1420.42
618.622
157.759
1408.95
641.764
86.1312
1394.38
633.058
-1.85002
1387.91
-3.35105
4.96392
12.8372
17.0652
616.177
-34.2075
1394.76
605.173
-15.1574
1398.22
598.991
-103.943
1465.61
568.622
-171.701
1452.83
557.689
-105.445
1408.59
553.163
-65.4937
1412.28
544.528
-94.1804
1420.73
543.42
-22.2111
1421.54
-4.11627
1427.02
499.074
-8.90646
1441.49
499.496
-29.6939
1443.6
502.069
1.18901
1441.78
504.398
45.9135
1443.34
516.142
89.54
1439.58
541.057
101.058
1487.84
545.26
137.908
1495.29
580.515
174.277
1434.49
611.56
130.214
1428.92
628.61
70.7532
1417.97
624.363
2.26893
1423.5
614.994
-21.9507
1417.44
603.69
-5.93443
1419.63
587.054
-73.3373
1442.63
571.411
-110.715
1412.81
561.504
-93.7172
1426.66
556.974
-58.7137
1430.09
548.007
-86.2719
1437.94
546.308
-20.4386
1438.87
-4.32716
1443.93
511.691
8.44697
1453.45
512.995
24.3323
1455.37
513.667
49.0776
1453.82
510.352
68.3517
1455.34
516.874
81.247
1451.55
536.876
90.2715
1431.45
553.986
129.817
1462.04
584.062
182.659
1449.04
605.488
135.583
1445.48
620.451
57.8053
1436.93
618.27
4.4449
1443.03
605.422
14.999
1415.48
602.184
12.2298
1420.92
579.263
-62.4213
1457.42
579.428
-88.4153
1430.48
564.433
-63.1861
1442.21
560.073
-52.0702
1445.32
550.824
-77.9771
1452.51
556.748
-5.86228
1453.43
23.4939
1458.22
505.666
7.6195
1464.27
507.272
22.1638
1466.02
510.618
44.5394
1464.71
515.487
61.6608
1466.23
522.559
72.4905
1462.74
542.809
78.248
1445.48
546.294
111.317
1474.61
571.458
154.461
1462.94
600.601
114.02
1459.42
613.583
47.0207
1452.29
613.186
5.16857
1458.14
612.701
17.0076
1451.53
601.403
13.2706
1460.03
580.308
-52.4815
1470.06
575.297
-76.2375
1445.48
566.552
-54.6352
1455.58
562.331
-45.5399
1458.69
552.928
-69.4965
1465.37
550.452
-5.13784
1466.07
20.7791
1470.49
509.112
6.75838
1474.16
510.925
19.7688
1475.74
514.665
39.5781
1474.71
519.964
54.5306
1476.24
527.352
63.4454
1473.29
536.152
99.3925
1442.95
550.272
118.35
1459.05
578.06
113.357
1486.84
602.241
96.614
1483.03
611.692
66.0342
1465.3
608.803
18.8523
1470.78
610.071
18.221
1465.72
600.193
15.4519
1473.53
581.943
-44.2042
1481.27
576.48
-65.1404
1460.24
575.154
-37.3288
1467.54
564.404
-18.1063
1470.76
554.935
-60.8915
1476.78
551.835
-4.39067
1477.42
18.1786
1481.57
512.308
5.87095
1483.29
514.281
17.2297
1484.71
518.308
34.3627
1483.95
523.91
47.0924
1485.51
531.38
54.3071
1482.91
539.127
84.3186
1481.06
553.372
99.8111
1485.48
575.166
93.2333
1483.97
591.012
79.4768
1479.8
602.451
54.5063
1476.6
607.006
18.9613
1481.78
609.339
26.307
1478.2
599.078
22.6463
1485.49
574.228
6.42965
1455.84
577.423
-35.8742
1446.3
570.702
-31.0705
1477.77
566.164
-14.952
1481.8
556.675
-52.1902
1487.22
553.078
-3.62451
1487.76
15.607
1491.63
515.262
4.93194
1491.81
517.364
14.5159
1493.07
521.62
28.9079
1492.6
527.41
39.4295
1494.12
534.718
45.2105
1491.02
542.816
69.486
1491.01
556.08
81.7754
1494.42
575.053
75.1081
1493.63
587.533
61.0043
1488.75
599.392
37.4928
1487.21
602.471
16.0112
1491.65
604.96
23.2189
1489.38
598.153
20.7435
1496.31
591.52
6.91228
1496.8
578.315
-25.4275
1494.99
571.892
-24.2474
1483.42
567.754
-12.0793
1491.67
558.319
-43.4758
1496.83
554.289
-2.88831
1497.28
13.077
1500.9
518.042
3.97418
1499.79
520.22
11.7321
1500.89
524.656
23.3026
1500.69
530.502
31.685
1502.01
531.466
43.7129
1490
545.988
51.2683
1491.77
558.637
64.338
1503.14
575.281
58.5529
1502.23
588.92
47.1805
1497.71
597.362
29.2479
1496.87
600.613
13.0167
1500.46
609.827
-7.44138
1519.69
597.722
6.27188
1524.23
591.613
6.51704
1506.52
581.074
-19.0329
1508.59
573.224
-19.0472
1493.58
569.328
-9.40965
1500.93
560.008
-34.7859
1505.71
555.486
-2.2213
1506.14
10.5425
1509.55
520.638
2.99701
1507.34
522.886
8.86583
1508.26
527.441
17.5723
1508.33
533.342
23.8177
1509.58
540.513
31.1239
1509.13
549.214
34.4718
1511.63
561.154
47.7712
1511.6
576.138
42.9161
1510.22
588.384
34.6287
1506.21
596.468
21.3087
1505.74
600.337
9.50739
1508.51
598.654
-4.9043
1506.21
597.664
5.32228
1508.85
592.029
5.50959
1515.54
582.039
-14.0368
1517.66
574.656
-14.0243
1503.14
570.927
-6.87723
1509.97
561.676
-26.0826
1514.05
556.731
-1.57258
1514.32
7.98767
1517.65
523.103
2.02539
1514.48
525.397
5.94077
1515.25
530.045
11.7529
1515.64
536.034
15.9125
1516.97
546.064
23.2914
1517.22
552.347
28.4492
1519.71
563.771
31.6572
1519.29
577.041
28.2315
1517.65
588.553
22.6974
1514.22
595.93
14.0991
1513.86
599.741
6.21853
1515.9
598.945
-3.18898
1514.42
598.099
3.8381
1517.77
592.749
4.00251
1523.92
580.112
-13.3054
1524.46
576.17
-17.0682
1512.68
572.668
-4.4703
1518.57
563.485
-17.3923
1521.96
558.179
-0.997039
1522.09
5.36408
1525.37
525.442
1.01427
1521.3
527.748
2.98644
1521.87
532.461
5.89128
1522.54
538.524
7.96456
1524.01
545.92
11.6536
1524.86
555.389
14.2793
1526.78
566.498
15.7715
1526.5
578.394
14.1157
1524.69
589.371
11.1368
1521.77
596.634
7.01048
1521.49
600.219
3.17146
1522.84
599.746
-1.71206
1522.1
598.875
2.04622
1526.08
593.698
2.12871
1531.77
584.011
-8.02345
1530.53
577.736
-9.10803
1521.57
574.477
-2.22008
1526.79
565.413
-8.7258
1529.49
559.644
-0.503399
1529.57
2.69368
1532.74
527.657
1527.78
529.971
1528.17
534.728
1529.11
540.837
1530.66
548.865
1532.06
558.414
1533.51
569.281
1533.24
580.381
1531.16
590.809
1528.74
597.993
1528.5
601.73
1529.15
601.096
1529.2
600.172
1533.81
595.075
1538.95
585.232
1534.13
579.487
1526.61
576.336
1533.94
567.298
1535.87
561.079
1535.84
1538.79
-80.1207
-0.126991
27.9285
0.102853
79.9684
-78.2106
2.54156
-27.8767
27.7824
-2.35345
78.1168
-78.8728
1.53937
-27.7882
27.7328
-1.55369
78.9424
-72.777
8.2783
-25.8735
24.8181
-6.70252
72.2566
-75.3972
-26.1181
24.1181
-1.23797
72.2725
6.36269
-63.7177
-21.5291
20.1822
-2.45902
64.1701
3.35342
1.66845
-330.144
114.355
-1.52101
329.997
4.08982
-326.681
113.257
-3.35485
326.66
-113.97
1.92635
-323.462
-112.314
111.621
-0.442762
322.672
6.34149
-325.945
-111.252
111.789
-5.41034
324.478
3.41423
-331.943
-113.277
111.375
-3.07712
333.508
-6.3226
-322.618
-107.171
102.675
12.0152
321.421
-317.128
6.50193
94.8175
-8.4863
314.782
5.77644
2.65577
2.04179
-100.962
-80.615
-4.30313
-23.1269
22.991
4.55558
80.4985
-25.708
-3.9939
0.945486
25.5082
3.24824
-54.2352
1.57123
-0.352435
-5.62889
54.266
4.37931
-57.0468
5.72304
-4.0659
5.56969
-7.2134
57.0333
-62.0673
0.939013
-7.87019
45.0439
-9.15793
245.242
1.99954
1.30652
1.88982
-10.9544
-7.74177
-10.9805
-59.8539
-64.7348
-63.0605
-65.2863
5.28107
-12.6177
14.126
-6.24096
64.7379
-284.52
18.5829
-68.6747
75.5063
-68.1341
281.558
16.2767
14.4721
14.9318
465.25
3.24749
1351.16
1.14639
6.26429
-1.37075
-1.55318
461.834
6.45829
1347.06
2.86734
0.946685
-3.24644
-4.35003
458.81
16.258
1340.24
-0.509094
1.7525
-6.56248
-8.02456
456.199
14.2285
1348.18
4.68991
3.04656
-9.43947
-10.9911
445.665
46.2929
1349.42
1.6909
-4.35259
-14.1996
-18.2181
438.549
80.6291
1328.18
-16.0271
-7.11531
-25.1555
-24.9817
122.954
110.293
1304.14
125.026
126.448
115.88
1.2809
-57.1944
-33.9088
-35.7841
-340.908
-75.7982
59.7906
352.795
34.9287
30.1228
30.2535
31.7703
-22.2397
-0.630988
-7.3238
26.193
4.00147
32.9376
-59.0969
-244.013
80.6944
-52.4226
241.9
39.5283
-285.665
-92.6415
100.576
-46.2977
284.5
36.4152
-309.572
-105.562
109.387
-40.5081
309.84
119.376
-194.358
1311.78
15.9457
34.4733
51.4554
55.3768
-316.906
-318.475
-326.312
-324.594
-112.996
-123.793
-112.291
-123.127
122.371
119.854
122.224
41.0251
-320.329
118.993
-42.3756
322.063
-212.736
1281.61
70.9866
54.1095
41.2848
48.5167
-321.96
-322.684
-324.647
-325.007
-117.123
-120.223
-118.549
-122.227
474.818
3.32072
1374.44
472.873
8.89762
1374.93
471.947
18.8492
1370.28
470.19
18.0171
1372.56
464.909
52.0824
1371.45
476.451
84.4286
1358.94
132.685
119.669
1338.64
140.228
123.173
126.856
-326.884
-52.6392
131.889
46.7367
333.582
-77.6983
-31.9581
-34.4168
40.6008
23.7353
79.7372
-68.0922
-39.4948
32.6247
0.91774
67.5633
6.48111
-66.4724
0.933007
-7.45172
31.2749
-4.08975
66.2312
0.805493
-0.203696
-0.978474
-7.51476
-6.38775
-6.14603
522.086
-258.295
1286.94
-118.222
-139.232
-114.919
-128.483
62.095
70.3747
47.205
43.6382
-316.255
-306.451
-324.795
-325.688
539.005
-242.483
1299.98
57.672
43.5621
43.2527
37.3837
525.26
-153.275
1335.83
46.1983
49.8801
37.132
36.9388
532.324
-123.58
1325.24
40.8925
8.8286
31.8574
29.2039
522.454
-168.059
1349.87
504.717
-174.776
1339.91
43.5284
48.4818
41.4612
30.9356
-214.379
1340.68
481.881
3.25459
1394.88
481.017
10.3081
1396.56
481.029
20.5814
1392.57
480.858
20.8083
1393.65
480.419
53.9065
1392.18
498.118
82.4518
1381.95
530.013
97.6978
1365.08
151.636
215.297
1388.85
-61.0351
-63.9687
-75.9022
-86.0783
150.652
146.234
145.629
-59.6423
160.911
47.9443
344.937
-342.515
-329.978
-23.9791
-162.065
161.871
24.494
329.657
-325.241
4.30312
164.846
-9.84035
322.139
6.28199
0.249823
1.98698
-164.727
7.39153
-162.722
-328.167
158.882
-5.28686
321.003
3.00798
5.8245
0.066986
558.31
-109.788
1304.64
18.2797
35.064
51.6579
89.056
-153.379
-154.024
-151.414
-151.894
-332.159
-332.836
-335.971
-335.536
546.4
-183.862
1275.65
556.443
-216.412
1320.83
541.511
-139.837
1364.34
535.642
-116.038
1367.36
531.652
-161.906
1374.99
523.399
-167.43
1377.6
-204.613
1369.17
487.928
3.11208
1412.4
487.803
10.9884
1414.47
488.756
21.4231
1410.88
490.247
22.2085
1411.48
493.004
53.0857
1409.79
515.497
77.785
1398.13
547.122
76.4182
1386.87
590.342
170.434
1398.36
622.692
140.031
1393.78
-37.963
-17.9408
-65.6102
-45.7038
642.964
88.5109
1360.86
-23.1045
-21.1364
-37.7397
-32.4388
633.38
-13.1912
1366.74
9.96045
16.5736
-7.03759
6.97501
-344.517
-340.858
-344.782
-340.282
617.063
-64.5453
1392.54
1.17062
29.933
15.3756
53.6522
594.366
-73.8763
1370.73
561.147
-170.667
1399.96
564.272
-198.194
1368.51
551.051
-126.846
1389.17
545.603
-107.73
1390.22
540.192
-152.708
1397.69
531.074
-157.516
1400.99
-192.755
1393.48
493.183
2.94299
1427.6
493.611
11.1789
1429.7
495.43
21.4734
1426.39
498.257
22.4921
1426.76
503.43
50.4731
1424.13
532.158
72.2735
1409.02
555.712
58.6046
1411.64
594.543
133.564
1418.46
617.529
110.211
1415.79
636.532
71.3951
1392.49
627.169
-16.6358
1400.72
612.565
-47.5293
1392.35
600.108
-59.4841
1396.28
595.436
-125.989
1425.61
568.452
-109.845
1391.46
556.169
-114.116
1408.14
550.564
-98.5946
1408.75
534.469
-106.53
1390.65
535.108
-130.715
1394.1
-179.818
1412.94
497.825
2.70989
1441
498.681
10.9539
1442.97
501.212
20.8387
1439.88
505.091
21.8426
1440.11
511.713
46.6543
1436.77
554.971
98.8708
1417.99
558.506
118.716
1431.65
591.952
103.662
1430.95
610.569
86.3773
1434.13
627
57.3085
1415.63
621.632
-12.3303
1424.56
611.595
-34.8996
1414.85
601.211
-47.0568
1417.59
583.735
-110.237
1444.35
570.978
-95.7269
1411.45
559.85
-101.868
1425.54
554.443
-89.3174
1426.22
548.606
-97.9534
1435.2
538.542
-120.306
1438.53
-165.899
1429.75
501.971
2.46664
1452.94
503.176
10.4
1454.72
506.275
19.6736
1451.88
510.912
20.5445
1452
518.238
42.1882
1448.69
529.748
87.2448
1431.57
561.704
99.9235
1448.88
589.463
80.444
1444.5
604.529
67.3854
1449.41
618.992
45.4984
1434.28
615.567
-9.09819
1443.22
598.962
-36.8945
1434.08
600.839
-65.0472
1437.04
583.575
-95.6747
1460.12
572.84
-83.38
1428.87
562.796
-90.239
1440.62
557.572
-79.9935
1441.22
551.36
-88.8379
1449.61
541.374
-109.303
1452.41
-151.151
1444.03
505.729
2.21495
1463.72
507.211
9.63738
1465.3
510.752
18.1084
1462.73
515.954
18.7515
1462.82
523.643
37.37
1459.87
535.455
75.3645
1445.55
564.111
84.1342
1461.75
587.143
61.3745
1458.98
599.645
52.2264
1462.07
612.195
35.9751
1449.26
610.655
-7.12929
1457.71
604.252
-26.5828
1447.62
600.511
-52.8512
1451.57
584.151
-82.2055
1472.95
574.416
-72.006
1443.84
565.041
-79.0073
1453.73
559.946
-70.691
1454.49
553.502
-79.4015
1462.38
543.694
-97.9422
1464.52
-135.808
1456.45
509.155
1.97458
1473.56
510.874
8.69891
1474.96
514.753
16.247
1472.69
520.325
16.6628
1472.76
528.198
32.4145
1470.37
536.54
49.7679
1460.2
565.591
41.0715
1473.06
587.257
52.3261
1474.22
595.654
55.8654
1470.99
606.871
28.1459
1461.91
606.516
-5.80258
1469.81
612.95
-58.7176
1491.42
599.562
-59.1265
1493.19
584.861
-70.2464
1484.01
575.711
-61.2551
1458.64
566.93
-68.2795
1465.59
562.142
-61.5681
1466.43
555.448
-69.7484
1473.82
545.865
-86.2189
1475.28
-119.882
1467.64
512.322
1.70447
1482.69
514.222
7.62151
1483.89
518.343
14.169
1481.91
524.182
14.3557
1481.98
532.109
27.4807
1479.92
551.303
40.7038
1470.93
566.062
32.1553
1479.64
577.615
40.0566
1484.69
592.486
44.135
1476.66
602.65
21.7753
1472.8
603.156
-4.74374
1480.22
597.596
-49.1261
1474.17
598.887
-48.9448
1474.01
561.94
-35.3368
1457.88
576.421
-76.0196
1446.58
568.536
-57.8775
1475.26
564.075
-52.479
1477.17
557.172
-59.9179
1484.29
547.894
-74.2971
1485.12
-103.552
1477.97
515.264
1.44278
1491.18
517.307
6.45266
1492.2
521.605
11.9705
1490.5
527.647
11.9839
1490.45
535.719
22.9133
1487.52
552.867
32.7901
1481.78
566.742
24.7901
1487.91
576.657
30.4213
1493.35
590.409
34.098
1485.03
599.451
16.5819
1483.36
600.595
-3.86517
1489.63
596.965
-40.2918
1484.18
598.365
-39.6907
1485.66
591.146
-28.2447
1496.93
573.164
-52.8096
1489.76
569.844
-46.1755
1475.04
565.797
-43.5358
1486.77
558.806
-50.0368
1493.94
549.881
-62.2041
1494.11
-86.8656
1487.51
518.024
1.15376
1499.16
520.165
5.21736
1499.99
524.6
9.64165
1498.58
530.861
9.60892
1498.12
537.067
14.6642
1492.04
554.566
14.6542
1492.4
567.385
18.5678
1496.54
576.49
22.5864
1500.96
589.065
25.4949
1493.73
597.267
12.3459
1492.9
598.83
-3.00059
1498.03
605.354
-20.575
1493.45
598.132
-4.44563
1496.21
591.629
-21.8163
1506.59
579.398
-41.8856
1509.9
571.414
-37.2465
1492.63
567.516
-34.7489
1496.04
560.385
-40.103
1502.91
551.827
-49.9371
1502.43
-69.8805
1496.41
520.62
0.863166
1506.68
522.834
3.93495
1507.33
527.344
7.26153
1506.2
533.764
7.18538
1505.58
545.85
11.2342
1500.48
556.284
10.5667
1505.29
567.946
13.1674
1505.33
576.992
15.7523
1508.01
588.296
18.2539
1502.15
596.195
8.54689
1501.64
598.634
-2.55959
1505.63
597.054
-14.8128
1502.03
598.281
-2.83487
1506.01
592.3
-15.8884
1515.59
581.33
-31.958
1518.71
573.089
-27.8831
1502.02
569.249
-25.9988
1505.06
562.04
-30.1228
1511.28
553.835
-37.5848
1510.17
-52.6933
1504.82
523.065
0.568061
1513.81
525.337
2.63593
1514.27
529.886
4.87179
1513.48
536.217
4.76762
1513.06
547.735
6.79231
1510.15
557.388
6.50362
1514.12
568.563
8.3563
1512.92
577.508
9.99085
1514.47
588.239
11.6952
1510.04
595.486
5.52681
1509.64
598.139
-1.86932
1512.56
597.44
-9.83516
1510.14
598.961
-1.64712
1515.07
593.385
-10.3448
1523.95
582.769
-22.6959
1525.81
574.934
-18.4939
1511.12
571.141
-17.2944
1513.66
563.844
-20.1109
1519.25
556.006
-25.1386
1517.48
-35.2803
1512.81
525.388
0.2821
1520.63
527.695
1.30584
1520.9
532.252
2.42319
1520.43
538.451
2.37246
1520.2
548.479
3.25057
1518.37
558.246
3.12135
1520.39
569.233
4.01219
1519.86
578.491
4.94583
1520.48
588.839
5.61161
1517.51
596.002
2.71051
1517.14
598.845
-0.890938
1519.02
598.403
-5.08086
1517.79
600.006
-0.752317
1523.58
594.715
-5.10937
1531.83
584.249
-14.5615
1532.86
576.832
-9.49724
1519.99
573.098
-8.6515
1521.88
565.717
-10.071
1526.83
558.25
-12.615
1524.51
-17.7043
1520.51
527.597
1527.11
529.921
1527.15
534.46
1526.99
540.569
1526.92
549.465
1526.42
559.131
1526.97
569.945
1526.43
580.096
1525.95
590.039
1524.41
597.182
1524.07
600.574
1524.87
599.957
1524.73
601.512
1531.5
596.366
1538.98
582.847
1533.09
578.912
1521.05
575.112
1529.09
567.606
1533.31
560.471
1530.36
1526.92
-79.8482
-0.576144
27.8425
0.462456
79.806
-78.0218
-0.131403
-27.765
27.6971
0.205389
78.0157
-79.0804
-0.570222
-27.8068
27.8109
0.528327
79.1182
-72.9198
-1.2103
-25.9437
24.7993
2.24965
73.0249
-71.6927
-26.8195
23.8569
3.05875
71.7311
-0.134636
-64.4884
-21.482
20.6917
1.17625
64.5066
-0.40411
-1.45849
114.181
1.70984
329.809
-329.933
-2.61112
-326.561
-113.825
113.156
3.39031
326.452
-5.21688
-322.292
-112.148
111.103
6.3904
322.163
-14.293
-323.8
-110.278
111.213
13.6461
323.513
-15.0936
-333.686
-113.337
111.401
17.2406
333.474
-19.2614
-320.734
-106.858
101.495
24.9551
320.403
-9.34875
-313.357
92.163
48.0111
313.126
-10.3555
-10.9478
-11.7451
-97.5457
-82.1398
-20.6869
-21.6231
22.9229
18.9506
82.5762
-24.9287
-3.3305
3.92699
24.8136
-0.48138
-54.7203
1.22698
0.152142
-2.46809
54.8433
0.965953
-57.765
1.27726
-4.81699
6.41188
-3.12124
58.0141
-250.207
11.864
-8.9024
51.2484
-50.9569
253.009
12.4882
7.93937
8.36274
-12.5182
-9.3332
-12.9945
-64.5605
4.1067
-13.7724
14.6694
-5.29338
64.8502
-280.113
4.50728
-74.2932
79.5874
-22.4277
279.038
5.60749
3.77891
4.31441
466.181
9.93226
1351.1
-2.18411
-2.65156
-1.5725
-2.43879
462.466
20.9494
1346.68
-3.87504
-4.48894
-3.76924
-4.72525
460.196
38.5222
1339.8
-7.14621
-10.4477
-7.45959
-10.7558
458.405
61.2493
1348.18
-13.6849
-16.1365
-13.9857
-15.6516
447.241
91.5225
1349.89
-19.3242
-21.7321
-18.655
-21.1219
433.111
146.432
1327.93
-29.1333
-36.2579
-28.8862
-37.7662
106.473
256.07
1299.73
111.868
105.862
111.327
-53.2236
-70.7062
-56.3572
-73.7868
-326.374
-105.33
103.925
324.217
28.4027
26.7842
28.2307
26.617
-32.0378
-5.27857
32.8828
3.84506
0.588501
17.1942
-63.0115
-239.591
79.7907
-31.6186
237.236
28.3645
-282.383
-91.8817
100.562
-34.6638
280.003
26.3421
-106.352
-309.33
110.587
-29.3101
308.063
120.41
-157.664
1288.54
57.5941
54.5743
30.2871
28.5278
-113.398
-123.743
-114.072
-124.268
122.406
120.382
122.202
32.2689
-322.706
119.787
-32.1942
323.254
-85.82
1281.5
23.9579
25.4443
20.5861
18.0585
-119.304
-122.996
-119.442
-123.275
474.571
9.99568
1374.49
472.71
22.9237
1374.82
471.085
40.1786
1370.25
469.132
63.0248
1372.73
464.317
95.9216
1371.86
463.744
147.294
1358.65
118.909
241.492
1336.38
121.922
118.361
121.383
-97.4438
-334.812
124.609
91.2183
335.338
-80.3896
-36.5692
-34.6287
37.4635
33.8038
80.3202
-67.8395
-39.8158
32.927
7.65089
67.8229
-0.745555
0.816183
-7.66037
-72.3724
73.9477
32.5756
-7.99171
0.73278
1.18823
1.45417
-7.68073
-7.35726
-7.65219
555.505
-132.281
1282.99
-128.716
-135.363
-131.832
-138.699
32.7737
28.7516
25.238
28.5763
541.974
-129.844
1302.41
34.7739
35.0439
35.1413
35.9826
531.137
-123.511
1334.49
34.1693
32.4118
35.4056
33.7053
518.046
-131.48
1343.35
28.7059
36.4426
29.8808
31.433
517.956
-154.604
1346.9
517.072
-108.718
1350.42
33.6768
21.1863
23.1796
21.0493
-82.9178
1339.72
481.622
9.68608
1394.99
480.883
23.6356
1396.59
480.193
40.7327
1392.7
479.68
63.3129
1393.88
479.704
95.4892
1392.58
485.414
141.709
1381.83
514.68
212.25
1365.06
145.082
295.714
1389.17
-86.7272
-94.5338
-84.6012
-94.4495
144.281
145.067
144.529
-94.8497
-345.526
156.499
83.3189
345.64
-43.3161
-329.633
-161.007
160.709
43.5484
329.697
-4.21716
-321.321
164.615
12.8309
321.082
-2.1593
-5.00492
-2.8204
-163.005
6.22682
-163.33
-325.565
154.444
-27.0387
330.037
9.69455
6.55335
8.97836
533.119
-189.882
1358.57
50.6546
68.3908
43.7704
48.3733
-150.703
-152.943
-151.544
-153.175
561.092
-217.796
1333.19
557.952
-138.58
1332.7
544.276
-110.302
1364.81
534.17
-121.757
1367.74
531.2
-147.612
1370.96
526.617
-103.889
1377.35
-79.7951
1368.52
487.68
9.18054
1412.56
487.693
23.4978
1414.6
487.94
40.2715
1411.1
489.048
61.9597
1411.73
492.175
92.0321
1410.12
501.915
132.686
1397.41
529.326
184.556
1387.15
581.629
242.451
1399.32
623.045
209.345
1394.19
-72.9412
-53.0923
-72.3693
-52.7617
642.589
135.265
1360.44
-41.9676
-35.2112
-41.668
-35.5447
636.467
19.2006
1367.97
-11.2751
4.78787
-11.9876
4.17496
611.919
-32.4405
1361.57
22.3761
34.8556
16.6257
14.0999
566.75
-166.501
1392.51
572.648
-201.393
1377.66
565.597
-124.651
1361.63
553.183
-98.424
1389.71
543.591
-112.342
1390.4
539.463
-139.031
1393.24
533.985
-97.7009
1400.28
-75.7496
1392.92
492.951
8.54069
1427.82
493.513
22.7327
1429.9
494.628
38.8979
1426.65
497.058
59.2692
1427.02
502.397
86.5121
1424.31
513.858
124.852
1405.39
539.32
160.912
1409.83
580.066
201.608
1418.56
613.957
175.16
1416.08
633.427
115.66
1392.63
628.222
24.1679
1400.95
612.851
-17.4038
1392.68
556.892
-49.1944
1334.93
577.258
-144.646
1348.49
569.648
-111.1
1385.52
557.94
-87.458
1408.88
548.37
-102.526
1408.51
533.214
-144.152
1410.93
537.691
-126.103
1418.02
-71.193
1412.44
497.606
7.85183
1441.21
498.598
21.5305
1443.18
500.429
36.7978
1440.15
503.901
55.5686
1440.34
510.501
79.7365
1436.95
522.903
112.831
1417.61
544.677
136.973
1433.81
578.489
167.156
1431.58
607.134
146.222
1434.43
624.236
98.2666
1415.92
622.588
25.5869
1424.79
611.863
-7.19078
1415.36
601.446
-37.6249
1416.44
579.146
-127.897
1449.9
572.088
-97.9904
1405.4
561.298
-77.2526
1426.12
552.2
-92.7307
1425.52
547.285
-132.563
1428.53
540.722
-115.911
1434.9
-66.0722
1429.21
501.753
7.13429
1453.14
503.082
20.0136
1454.9
505.51
34.1376
1452.11
509.754
51.1052
1452.22
517.032
72.2111
1448.93
530.1
99.7225
1431.61
548.955
116.915
1450.08
577.138
138.639
1444.83
601.291
121.81
1449.67
616.394
82.8712
1434.57
616.38
25.4972
1443.33
609.331
-0.266411
1434.21
600.993
-28.2638
1436.01
580.268
-111.973
1464.92
573.972
-86.0387
1423.21
563.963
-67.8131
1441.19
555.262
-83.0393
1440.23
549.902
-120.385
1442.79
543.142
-105.241
1448.5
-60.4817
1443.42
505.503
6.38385
1463.91
507.107
18.2114
1465.5
509.999
31.0232
1462.96
514.829
46.0971
1463
522.561
64.2697
1460.08
535.764
86.5939
1445.48
552.47
99.7121
1462.24
576.576
114.298
1459.22
596.639
101.519
1462.3
609.763
69.492
1449.52
611.216
23.8924
1457.87
612.496
-22.8505
1468.92
600.523
-33.8938
1469.18
581.314
-96.717
1476.9
575.378
-74.6023
1438.34
565.896
-58.799
1454.19
557.608
-73.3816
1453.12
551.992
-107.788
1455.4
545.031
-94.2631
1460.5
-54.5546
1455.79
508.939
5.59084
1473.75
510.758
16.2131
1475.14
514.008
27.6154
1472.85
519.24
40.7343
1472.89
527.235
56.101
1470.55
540.692
73.479
1459.86
555.453
85.0474
1472.96
576.143
93.4704
1474.36
593.013
84.5305
1471.11
604.573
57.7472
1462.1
606.815
21.5842
1469.88
617.267
-13.7151
1471.83
599.613
6.15105
1470.8
581.818
-82.4313
1487.52
576.349
-63.3943
1452.9
567.657
-50.3251
1465.81
559.75
-63.8651
1464.82
553.991
-94.8368
1466.63
546.784
-82.9851
1471.21
-48.304
1466.89
512.106
4.82439
1482.81
514.104
14.0881
1484.02
517.618
23.9711
1482.04
523.134
35.1275
1482.07
531.21
47.9196
1480.02
543.102
61.4663
1471.06
557.289
70.7235
1479.78
574.806
75.7973
1484.84
590.171
69.0451
1476.78
600.486
47.322
1472.91
603.194
18.8738
1480.22
600.234
-10.0501
1473.46
599.023
7.50185
1473.87
566.343
-87.9097
1496.03
576.9
-95.2652
1467.9
569.193
-42.3253
1474.96
561.599
-54.467
1475.37
555.73
-81.6596
1476.98
548.335
-71.4728
1481
-41.7968
1477.13
515.058
4.02492
1491.28
517.178
11.8646
1492.3
520.891
20.1578
1490.6
526.589
29.3694
1490.51
534.557
39.9722
1487.5
545.724
50.1906
1481.89
559.092
57.2851
1487.98
574.386
60.4063
1493.45
588.297
55.0175
1485.15
597.453
38.0618
1483.47
600.463
15.9253
1489.57
598.39
-7.37503
1483.57
598.471
7.68514
1485.39
577.652
-72.6996
1502.54
572.57
-82.2902
1481.87
570.371
-45.0029
1479.92
563.287
-45.2748
1484.66
557.332
-68.3215
1486.56
549.843
-59.8077
1489.93
-35.0962
1486.59
517.812
3.22593
1499.24
520.033
9.56946
1500.06
523.896
16.2349
1498.64
529.696
23.5761
1498.12
536.979
32.8216
1491.91
548.161
38.586
1492.83
560.815
44.5556
1496.62
574.469
46.6926
1501.02
587.096
42.3356
1493.79
595.456
29.652
1492.95
598.605
12.9235
1497.88
597.129
-5.39143
1492.94
598.163
7.03149
1495.82
574.027
-21.7499
1479.78
576.96
-50.7299
1475.41
571.762
-36.0462
1488.88
565.034
-36.0853
1493.58
558.918
-54.8168
1495.52
551.349
-47.9996
1498.19
-28.2384
1495.42
520.397
2.42676
1506.74
522.7
7.21481
1507.38
526.653
12.234
1506.25
532.563
17.7007
1505.55
540.991
24.8001
1500.07
550.842
28.3549
1505.66
562.501
32.8218
1505.41
575.229
33.9383
1508.04
586.552
30.9696
1502.19
594.582
21.6042
1501.66
598.235
9.45741
1505.44
596.661
-3.34367
1501.55
598.313
5.83264
1505.56
592.338
-15.8686
1515.68
579.014
-39.7746
1521.07
573.162
-26.922
1498.74
566.846
-27.0182
1502.31
560.654
-41.2396
1503.89
552.928
-36.1186
1506.02
-21.2747
1503.75
522.851
1.60102
1513.88
525.196
4.82419
1514.32
529.222
8.16339
1513.52
535.152
11.7939
1513.04
543.985
16.1826
1509.93
553.127
19.0002
1514.33
564.285
21.6262
1512.96
576.021
22.1994
1514.47
586.742
20.2285
1510.06
594.071
14.2891
1509.62
597.545
6.1856
1512.35
596.878
-2.15731
1509.62
598.985
4.14087
1514.65
593.406
-10.3559
1524.02
581.058
-29.6885
1528.07
574.791
-17.7505
1508.22
568.724
-17.971
1510.68
562.55
-27.5653
1511.75
554.702
-24.1353
1513.35
-14.2198
1511.73
525.184
0.796861
1520.65
527.561
2.40875
1520.94
531.621
4.08484
1520.45
537.54
5.88869
1520.19
545.754
7.97857
1518.36
555.205
9.48931
1520.45
566.128
10.712
1519.85
577.273
11.0707
1520.46
587.6
9.89781
1517.51
594.794
7.10685
1517.13
598.087
3.1569
1518.75
597.734
-1.18941
1517.17
600.03
2.17917
1523.25
594.737
-5.10695
1531.87
583.352
-20.7978
1535.36
576.531
-8.38069
1517.44
570.715
-8.99516
1518.72
564.407
-13.842
1519.41
556.562
-12.1302
1520.35
-7.1524
1519.47
527.393
1527.13
529.77
1527.18
533.856
1526.99
539.78
1526.88
547.803
1526.38
557.313
1526.95
568.046
1526.41