/*--------------------------------*- C++ -*----------------------------------*\
  =========                 |
  \\      /  F ield         | OpenFOAM: The Open Source CFD Toolbox
   \\    /   O peration     | Website:  https://openfoam.org
    \\  /    A nd           | Version:  10
     \\/     M anipulation  |
\*---------------------------------------------------------------------------*/
FoamFile
{
    format      ascii;
    class       volVectorField;
    location    "2000";
    object      U;
}
// * * * * * * * * * * * * * * * * * * * * * * * * * * * * * * * * * * * * * //

dimensions      [0 1 -1 0 0 0 0];

internalField   nonuniform List<vector> 
55398
(
(14.631 0.213097 14.5718)
(15.0318 0.293557 14.5309)
(14.7292 0.0377515 14.4914)
(14.4951 0.425154 14.3102)
(14.0185 0.576608 14.0693)
(12.368 0.688656 13.0835)
(15.1778 0.137641 15.1543)
(15.3151 0.241663 15.1371)
(15.1437 0.320184 15.1206)
(14.9839 0.576528 15.0756)
(14.6912 0.852254 15.0181)
(14.1234 1.37739 14.9302)
(13.044 2.44899 14.7291)
(10.1149 4.25369 13.4053)
(-3.36476 0.292987 9.72149)
(-0.902595 -0.241055 10.7922)
(2.60277 -0.402093 10.7363)
(4.92891 -0.465807 11.3338)
(7.08439 -0.331732 12.0921)
(9.33703 -0.840249 12.9649)
(15.6391 0.140967 15.6153)
(15.6444 0.256162 15.6072)
(15.5494 0.469047 15.5819)
(15.3969 0.739122 15.5454)
(15.1529 1.15262 15.4955)
(14.7766 1.92153 15.4)
(14.2445 3.54985 15.2325)
(13.9574 5.86133 14.8127)
(-0.251278 0.271836 6.61568)
(9.82981 -1.48686 11.1879)
(12.7392 -1.96643 13.1736)
(14.3936 -1.51397 14.2274)
(15.0771 -1.28209 14.4527)
(15.8736 -1.10146 14.6802)
(16.0331 -1.05834 14.857)
(15.9163 0.124313 15.8994)
(15.9184 0.282333 15.8893)
(15.8545 0.498162 15.8693)
(15.7516 0.798198 15.8394)
(15.6254 1.24346 15.7987)
(15.4359 2.0153 15.7147)
(15.5174 3.44106 15.5785)
(15.7435 5.28212 15.3381)
(19.2769 7.75665 14.8395)
(20.0346 2.5148 13.4272)
(16.3793 -1.84379 13.5612)
(17.7303 -1.69762 14.667)
(18.2394 -1.97962 14.9879)
(17.7676 -1.86194 15.2884)
(17.4303 -1.53934 15.4035)
(17.3431 -1.16787 15.4238)
(17.3431 -1.13683 15.4542)
(17.2787 -1.02955 15.5445)
(16.1468 0.118987 16.135)
(16.1527 0.29499 16.1256)
(16.1195 0.522109 16.1087)
(16.071 0.831985 16.0841)
(16.036 1.28203 16.0476)
(16.0473 1.97968 15.9847)
(16.3303 3.17965 15.8693)
(17.7793 4.4664 15.7057)
(19.9021 4.88481 15.4135)
(21.6262 2.74524 15.1765)
(22.7737 1.27173 15.029)
(21.098 -1.80722 15.0875)
(19.7815 -1.69645 15.3623)
(19.1806 -1.6436 15.4069)
(18.8349 -1.80379 15.5051)
(18.2823 -1.67588 15.6724)
(17.9038 -1.42423 15.734)
(17.7393 -1.17946 15.7727)
(17.7045 -1.12894 15.793)
(17.5716 -1.01463 15.8568)
(16.3461 0.111401 16.3372)
(16.3572 0.29893 16.3289)
(16.3518 0.528883 16.3147)
(16.3497 0.835124 16.2934)
(16.3952 1.2623 16.2639)
(16.5235 1.88688 16.2065)
(16.972 2.76748 16.1352)
(18.254 3.87061 15.9875)
(20.3053 3.22381 15.8504)
(21.5056 2.17952 15.7688)
(21.9703 0.355923 15.7081)
(21.045 -0.933045 15.7412)
(19.9707 -1.39038 15.8069)
(19.5463 -1.45587 15.8372)
(19.1366 -1.56927 15.8993)
(18.6233 -1.48109 15.9951)
(18.2976 -1.32785 16.0238)
(18.0604 -1.11706 16.0594)
(17.9825 -1.06382 16.0804)
(17.7707 -0.971045 16.1302)
(16.5213 0.105409 16.5142)
(16.5381 0.296111 16.5071)
(16.5564 0.522615 16.4949)
(16.5965 0.815879 16.4779)
(16.6972 1.20984 16.4528)
(16.9211 1.74701 16.4063)
(17.3925 2.42615 16.3499)
(18.5363 3.12402 16.2618)
(20.0956 2.69698 16.1566)
(21.1381 1.73551 16.0915)
(21.4507 0.343996 16.0775)
(20.8905 -0.832424 16.0813)
(20.179 -1.19738 16.1139)
(19.6944 -1.30802 16.1394)
(19.2836 -1.38062 16.18)
(18.8098 -1.32665 16.2387)
(18.4985 -1.21765 16.2585)
(18.2217 -1.04881 16.2936)
(18.1249 -1.0032 16.3132)
(17.8805 -0.922797 16.3533)
(16.6777 0.0987633 16.6717)
(16.7 0.286494 16.6657)
(16.7386 0.503948 16.6554)
(16.8125 0.778065 16.6416)
(16.9565 1.13207 16.6211)
(17.2331 1.57985 16.5873)
(17.725 2.09768 16.5411)
(18.6962 2.58584 16.4757)
(19.9504 2.26451 16.4086)
(20.8152 1.50197 16.3585)
(21.1334 0.332788 16.3368)
(20.7816 -0.528566 16.334)
(20.2158 -0.918626 16.3549)
(19.7487 -1.07773 16.3892)
(19.3684 -1.169 16.4192)
(18.941 -1.15593 16.4587)
(18.6471 -1.09085 16.4748)
(18.3591 -0.965596 16.5045)
(18.2462 -0.926869 16.5206)
(17.972 -0.859097 16.5516)
(16.8189 0.0918591 16.814)
(16.8467 0.271563 16.8094)
(16.9022 0.475711 16.8009)
(17.002 0.727026 16.7887)
(17.1772 1.0377 16.7721)
(17.4838 1.41193 16.7452)
(17.9742 1.80548 16.7104)
(18.8026 2.14424 16.6605)
(19.8181 1.89188 16.6139)
(20.5583 1.25572 16.5805)
(20.8562 0.368693 16.5678)
(20.6235 -0.395223 16.5581)
(20.1827 -0.784105 16.5712)
(19.7722 -0.952323 16.5995)
(19.4261 -1.03747 16.6214)
(19.0448 -1.0337 16.6478)
(18.7662 -0.986825 16.6594)
(18.4705 -0.883749 16.6833)
(18.3454 -0.849253 16.6971)
(18.049 -0.793696 16.7214)
(16.9475 0.0841351 16.9434)
(16.9801 0.252073 16.94)
(17.0496 0.4399 16.9328)
(17.1695 0.66581 16.9223)
(17.3662 0.934985 16.9084)
(17.6844 1.24617 16.887)
(18.1601 1.54529 16.86)
(18.8783 1.77471 16.8224)
(19.7228 1.57352 16.7879)
(20.3515 1.06246 16.7641)
(20.6298 0.351287 16.755)
(20.4908 -0.272901 16.7438)
(20.158 -0.611268 16.7511)
(19.7934 -0.781044 16.7741)
(19.4736 -0.866979 16.7924)
(19.1182 -0.883026 16.8115)
(18.8521 -0.859052 16.821)
(18.5555 -0.786788 16.8403)
(18.424 -0.761112 16.8513)
(18.112 -0.71784 16.8695)
(17.0656 0.0760986 17.0615)
(17.102 0.228895 17.0588)
(17.1823 0.397962 17.0528)
(17.3174 0.596826 17.044)
(17.5288 0.826814 17.0328)
(17.8512 1.08301 17.0151)
(18.3064 1.31371 16.9943)
(18.9373 1.46533 16.9681)
(19.6479 1.30174 16.9424)
(20.1932 0.884715 16.9242)
(20.4486 0.325013 16.9165)
(20.3726 -0.18438 16.9077)
(20.1119 -0.494614 16.9109)
(19.7967 -0.663146 16.9293)
(19.5063 -0.750165 16.9441)
(19.1811 -0.772584 16.9582)
(18.9285 -0.759197 16.9646)
(18.6338 -0.701592 16.9799)
(18.4966 -0.679681 16.9885)
(18.1718 -0.643324 17.0035)
(17.1747 0.0672991 17.1706)
(17.2144 0.202929 17.1683)
(17.3031 0.351536 17.1635)
(17.4493 0.522953 17.1564)
(17.6701 0.716028 17.1473)
(17.99 0.924163 17.1335)
(18.424 1.10131 17.1162)
(18.9855 1.20167 17.0979)
(19.5945 1.068 17.0802)
(20.0731 0.733179 17.0651)
(20.3067 0.29048 17.059)
(20.2742 -0.126514 17.0517)
(20.0767 -0.389689 17.0527)
(19.8057 -0.54256 17.066)
(19.5384 -0.621017 17.0785)
(19.236 -0.645765 17.0901)
(18.9921 -0.641808 17.0949)
(18.6999 -0.601831 17.1069)
(18.5593 -0.58645 17.1135)
(18.2258 -0.559395 17.1252)
(17.2762 0.0578949 17.2719)
(17.3184 0.17476 17.2701)
(17.4135 0.301715 17.2663)
(17.5676 0.445719 17.2606)
(17.7939 0.604177 17.2535)
(18.1094 0.769712 17.2427)
(18.5225 0.903654 17.2296)
(19.0281 0.970541 17.2163)
(19.5624 0.861135 17.2034)
(19.9867 0.59619 17.1925)
(20.2018 0.250247 17.1877)
(20.1985 -0.085187 17.182)
(20.0474 -0.303546 17.1819)
(19.8118 -0.440941 17.1902)
(19.5646 -0.513256 17.2014)
(19.2815 -0.540527 17.2102)
(19.048 -0.542184 17.2137)
(18.7607 -0.512951 17.2228)
(18.6183 -0.500953 17.2277)
(18.2788 -0.479012 17.2369)
(17.3709 0.0480009 17.3665)
(17.4152 0.144915 17.3651)
(17.5149 0.24945 17.3621)
(17.6745 0.36631 17.3578)
(17.903 0.493182 17.3518)
(18.2134 0.621647 17.3439)
(18.608 0.720865 17.3344)
(19.0701 0.766355 17.3248)
(19.5473 0.679112 17.3153)
(19.9339 0.471557 17.3077)
(20.1305 0.206373 17.3038)
(20.1461 -0.0576924 17.3004)
(20.0284 -0.233116 17.3)
(19.8243 -0.345617 17.3053)
(19.5945 -0.407535 17.3134)
(19.3283 -0.432472 17.32)
(19.1026 -0.436394 17.3228)
(18.8192 -0.416128 17.3296)
(18.6758 -0.407712 17.3332)
(18.3317 -0.391717 17.3401)
(17.4597 0.0377035 17.4552)
(17.5055 0.113825 17.4542)
(17.6087 0.195451 17.452)
(17.7719 0.285704 17.4489)
(18.0016 0.382668 17.4441)
(18.3058 0.477548 17.4387)
(18.6873 0.548905 17.4321)
(19.1099 0.578843 17.4255)
(19.572 0.508945 17.4186)
(19.8807 0.362043 17.4138)
(20.1343 0.166104 17.4107)
(20.1238 -0.038776 17.4092)
(20.027 -0.172762 17.4085)
(19.843 -0.260983 17.4114)
(19.6279 -0.310669 17.417)
(19.3754 -0.332565 17.4217)
(19.1564 -0.338238 17.4237)
(18.8772 -0.324996 17.4285)
(18.7335 -0.319139 17.4311)
(18.3869 -0.307206 17.4362)
(17.5433 0.0271132 17.5387)
(17.5902 0.0818601 17.538)
(17.6957 0.140305 17.5365)
(17.8613 0.204452 17.5345)
(18.092 0.272455 17.5312)
(18.3914 0.338224 17.5276)
(18.7597 0.386785 17.5232)
(19.1629 0.402574 17.519)
(19.5799 0.358037 17.5146)
(19.8949 0.24964 17.5113)
(20.0909 0.110015 17.5092)
(20.1237 -0.0188484 17.5085)
(20.045 -0.116422 17.508)
(19.8763 -0.181152 17.5098)
(19.6725 -0.218072 17.5136)
(19.4296 -0.234789 17.5167)
(19.2155 -0.239762 17.5179)
(18.9388 -0.231093 17.5212)
(18.7948 -0.227235 17.523)
(18.4466 -0.219123 17.5266)
(17.6222 0.0163176 17.6176)
(17.6698 0.0492927 17.6172)
(17.7768 0.0844008 17.6164)
(17.9438 0.122786 17.6151)
(18.1746 0.16283 17.6134)
(18.4711 0.201931 17.6113)
(18.8305 0.229385 17.6089)
(19.2198 0.240297 17.6065)
(19.6126 0.210885 17.6042)
(19.924 0.150845 17.6024)
(20.1113 0.0652764 17.6009)
(20.1428 -0.00997786 17.6004)
(20.0763 -0.0675738 17.6001)
(19.9182 -0.106364 17.6015)
(19.7222 -0.128946 17.6045)
(19.4865 -0.139488 17.6062)
(19.2757 -0.143269 17.6069)
(19.0015 -0.138794 17.6091)
(18.8575 -0.13691 17.6101)
(18.5085 -0.132269 17.6126)
(17.697 0.005431 17.6922)
(17.7447 0.0164247 17.6918)
(17.8523 0.0281199 17.6912)
(18.0198 0.0408816 17.6906)
(18.2507 0.0540726 17.6898)
(18.545 0.0667704 17.6888)
(18.9021 0.0750967 17.6879)
(19.2777 0.0795334 17.6869)
(19.6841 0.0679156 17.6861)
(19.9511 0.0490884 17.6855)
(20.1795 0.0269526 17.685)
(20.1792 -0.00873146 17.6845)
(20.1251 -0.0240829 17.6842)
(19.9724 -0.0357526 17.6843)
(19.7796 -0.0430274 17.6841)
(19.5471 -0.0468683 17.6837)
(19.3381 -0.0482697 17.6836)
(19.0639 -0.0466832 17.6832)
(18.919 -0.0459112 17.6831)
(18.5684 -0.044068 17.683)
(14.6347 0.20532 14.5789)
(15.0448 0.287935 14.5678)
(14.7649 0.102963 14.5423)
(14.6083 0.457478 14.467)
(13.8702 0.523696 13.933)
(12.928 0.769126 13.6665)
(15.1898 0.135958 15.1667)
(15.3319 0.239644 15.163)
(15.1635 0.324693 15.1428)
(15.0048 0.58155 15.0959)
(14.7051 0.854198 15.0276)
(14.1414 1.39081 14.9472)
(13.0568 2.48192 14.6994)
(9.23312 4.14183 12.8021)
(-3.00115 0.4347 10.1345)
(-0.506901 -0.342445 11.2126)
(3.06819 -0.573978 11.1687)
(5.20884 -0.40256 11.3185)
(6.99259 -0.377004 11.9523)
(9.79632 -0.760635 12.991)
(15.644 0.140381 15.6217)
(15.6488 0.255687 15.6156)
(15.5593 0.469286 15.5928)
(15.413 0.741719 15.5574)
(15.169 1.15874 15.5103)
(14.8156 1.92285 15.4066)
(14.3939 3.54016 15.2369)
(13.8664 5.95355 14.8076)
(0.137874 0.225796 6.64866)
(9.94898 -1.34764 11.0581)
(13.0826 -1.96743 13.1219)
(14.5976 -1.58833 14.2581)
(15.8107 -1.24049 14.6856)
(15.9029 -1.09384 14.6628)
(16.3122 -1.02761 14.932)
(15.9186 0.1241 15.9027)
(15.9231 0.28298 15.8967)
(15.862 0.49937 15.8774)
(15.7642 0.800249 15.8472)
(15.6392 1.24527 15.8087)
(15.4687 2.015 15.717)
(15.6152 3.40305 15.5879)
(15.7758 5.2439 15.3577)
(19.1387 8.06201 14.6301)
(20.1903 2.51696 13.7238)
(16.0589 -1.81253 13.313)
(18.2644 -1.77608 14.8993)
(18.2496 -1.94436 15.0043)
(17.8277 -1.86058 15.2784)
(17.4434 -1.55877 15.4125)
(17.3536 -1.15439 15.4555)
(17.366 -1.13324 15.4777)
(17.3196 -1.01266 15.5649)
(16.1486 0.119024 16.1376)
(16.1564 0.29546 16.1316)
(16.1255 0.523068 16.115)
(16.0815 0.833321 16.0898)
(16.0467 1.28327 16.0553)
(16.0746 1.9742 15.9844)
(16.3806 3.14976 15.8842)
(17.7997 4.38515 15.7409)
(19.8163 4.82438 15.5045)
(21.574 2.76388 15.2284)
(22.7428 0.655678 15.0804)
(21.1727 -1.85755 15.093)
(19.7201 -1.7265 15.4118)
(19.194 -1.58772 15.4395)
(18.8594 -1.7638 15.5305)
(18.3293 -1.67954 15.6739)
(17.9167 -1.43118 15.741)
(17.7405 -1.16781 15.7856)
(17.7143 -1.11891 15.8073)
(17.5919 -1.00499 15.8735)
(16.3476 0.111401 16.3393)
(16.3602 0.299307 16.3338)
(16.3566 0.529336 16.3196)
(16.3581 0.83543 16.2977)
(16.4037 1.26185 16.2698)
(16.5439 1.88086 16.2072)
(17.0036 2.73294 16.1485)
(18.262 3.82437 16.0109)
(20.2767 3.17904 15.8896)
(21.4809 2.17702 15.7865)
(21.8552 0.175806 15.7849)
(21.0735 -0.930041 15.7685)
(19.9437 -1.41403 15.8108)
(19.5237 -1.44501 15.8412)
(19.1424 -1.54563 15.9128)
(18.6433 -1.47806 16.0004)
(18.3001 -1.32822 16.0309)
(18.0596 -1.11067 16.0687)
(17.989 -1.05687 16.0894)
(17.7837 -0.96463 16.1421)
(16.5225 0.105443 16.5159)
(16.5406 0.29637 16.5112)
(16.5603 0.522782 16.4989)
(16.6029 0.815346 16.4808)
(16.7035 1.20903 16.4565)
(16.9336 1.73895 16.4073)
(17.4132 2.40022 16.3589)
(18.5368 3.08663 16.2817)
(20.0752 2.67894 16.1883)
(21.1184 1.72569 16.115)
(21.4428 0.326579 16.0783)
(20.8891 -0.828323 16.0851)
(20.1764 -1.2017 16.114)
(19.6848 -1.3023 16.1447)
(19.2888 -1.3691 16.1864)
(18.8215 -1.32414 16.2436)
(18.5018 -1.21672 16.264)
(18.2199 -1.04486 16.2982)
(18.1278 -0.998924 16.3187)
(17.8879 -0.917358 16.3638)
(16.6786 0.0988108 16.6731)
(16.7021 0.286708 16.669)
(16.7418 0.504 16.6585)
(16.8175 0.777601 16.6436)
(16.9607 1.13041 16.6224)
(17.2407 1.57938 16.587)
(17.7312 2.08057 16.5481)
(18.6928 2.56047 16.4906)
(19.937 2.24716 16.43)
(20.8013 1.49678 16.3755)
(21.1186 0.329435 16.3511)
(20.7806 -0.524393 16.3423)
(20.214 -0.923063 16.3563)
(19.7437 -1.07999 16.3908)
(19.3673 -1.16666 16.4209)
(18.9478 -1.1535 16.4631)
(18.6498 -1.08816 16.479)
(18.3577 -0.962535 16.5059)
(18.2479 -0.923654 16.5235)
(17.9774 -0.854639 16.5596)
(16.8195 0.0917227 16.8147)
(16.8478 0.271812 16.8109)
(16.9043 0.475855 16.8022)
(17.0056 0.726512 16.7898)
(17.1806 1.03638 16.7729)
(17.4858 1.40959 16.746)
(17.975 1.79996 16.7128)
(18.8002 2.12603 16.671)
(19.8102 1.87714 16.6299)
(20.5487 1.25005 16.5924)
(20.8457 0.365625 16.5785)
(20.6203 -0.389357 16.5679)
(20.1822 -0.782794 16.5753)
(19.7707 -0.951656 16.6009)
(19.4252 -1.03369 16.6235)
(19.0466 -1.03023 16.6515)
(18.7672 -0.984476 16.6627)
(18.4701 -0.882626 16.684)
(18.3467 -0.847261 16.699)
(18.0531 -0.789198 16.7278)
(16.9479 0.0842381 16.9436)
(16.9805 0.252124 16.9403)
(17.0506 0.439789 16.9332)
(17.172 0.664944 16.9227)
(17.3691 0.933507 16.909)
(17.6858 1.24431 16.8878)
(18.1606 1.54217 16.8618)
(18.8766 1.7625 16.8305)
(19.7166 1.5622 16.7998)
(20.3446 1.05803 16.7727)
(20.6227 0.345752 16.763)
(20.4868 -0.27044 16.751)
(20.1572 -0.609965 16.755)
(19.7922 -0.781521 16.7748)
(19.4727 -0.866656 16.7927)
(19.1202 -0.880944 16.8142)
(18.8532 -0.857061 16.8234)
(18.5554 -0.78558 16.8407)
(18.425 -0.759424 16.8526)
(18.1152 -0.713847 16.8748)
(17.0659 0.0761317 17.0616)
(17.1024 0.228887 17.059)
(17.1831 0.397757 17.0531)
(17.3194 0.59595 17.0445)
(17.531 0.825368 17.0334)
(17.8514 1.07982 17.0164)
(18.3072 1.30894 16.9964)
(18.9371 1.45656 16.9733)
(19.6433 1.29521 16.9499)
(20.1892 0.881643 16.9304)
(20.4445 0.319937 16.923)
(20.3684 -0.182461 16.9153)
(20.1108 -0.492544 16.9159)
(19.796 -0.662445 16.9302)
(19.5052 -0.749334 16.9443)
(19.1822 -0.770513 16.9604)
(18.929 -0.757393 16.9666)
(18.634 -0.701109 16.9801)
(18.4974 -0.678214 16.9895)
(18.1745 -0.639517 17.0077)
(17.175 0.067314 17.1707)
(17.2147 0.20289 17.1685)
(17.3037 0.351308 17.1638)
(17.4508 0.522141 17.1569)
(17.6718 0.714676 17.148)
(17.9912 0.921933 17.1347)
(18.4246 1.09589 17.1194)
(18.985 1.19473 17.1019)
(19.5926 1.06388 17.0841)
(20.0708 0.730683 17.0694)
(20.3046 0.286706 17.0637)
(20.2696 -0.125291 17.061)
(20.0754 -0.386938 17.0587)
(19.8052 -0.542615 17.0662)
(19.5374 -0.621421 17.078)
(19.2367 -0.645009 17.091)
(18.9928 -0.640484 17.0963)
(18.7001 -0.601291 17.107)
(18.5599 -0.585096 17.1143)
(18.2279 -0.556098 17.1286)
(17.2764 0.0579102 17.272)
(17.3187 0.174719 17.2703)
(17.414 0.301498 17.2665)
(17.5688 0.444972 17.261)
(17.7951 0.603032 17.2541)
(18.1102 0.767621 17.2438)
(18.5228 0.899475 17.2323)
(19.0278 0.965696 17.2194)
(19.5612 0.857938 17.2064)
(19.9853 0.594439 17.1956)
(20.2008 0.247575 17.1912)
(20.1953 -0.084582 17.1888)
(20.0464 -0.301375 17.1866)
(19.8116 -0.441193 17.1895)
(19.5643 -0.513448 17.1996)
(19.2817 -0.540064 17.2105)
(19.0484 -0.541207 17.2148)
(18.7608 -0.51268 17.223)
(18.6188 -0.499828 17.2284)
(18.2806 -0.476055 17.2396)
(17.371 0.0480054 17.3665)
(17.4154 0.144875 17.3652)
(17.5154 0.249259 17.3623)
(17.6755 0.365686 17.3582)
(17.9039 0.491871 17.3528)
(18.214 0.619524 17.3451)
(18.6082 0.717542 17.3366)
(19.0699 0.762784 17.3272)
(19.5464 0.676664 17.3174)
(19.9334 0.469858 17.3098)
(20.1304 0.204326 17.3063)
(20.1445 -0.0572669 17.3044)
(20.0279 -0.231523 17.3021)
(19.8244 -0.345651 17.305)
(19.5939 -0.408198 17.312)
(19.3283 -0.43226 17.3201)
(19.1029 -0.435654 17.3236)
(18.8192 -0.415878 17.3297)
(18.6761 -0.406767 17.3337)
(18.3331 -0.389281 17.3421)
(17.4598 0.0377069 17.4553)
(17.5057 0.113793 17.4543)
(17.609 0.1953 17.4522)
(17.7726 0.285208 17.4492)
(18.0023 0.381456 17.4449)
(18.3061 0.475659 17.44)
(18.6874 0.546404 17.4338)
(19.1097 0.576334 17.4272)
(19.572 0.507209 17.42)
(19.8805 0.36082 17.4152)
(20.1343 0.16486 17.4126)
(20.1233 -0.0384681 17.411)
(20.0271 -0.17217 17.409)
(19.8432 -0.260973 17.4114)
(19.6278 -0.310786 17.417)
(19.3755 -0.332301 17.4221)
(19.1567 -0.337635 17.4243)
(18.8771 -0.324828 17.4286)
(18.7337 -0.318439 17.4315)
(18.3881 -0.305275 17.4377)
(17.5433 0.0271212 17.5388)
(17.5903 0.0818415 17.5381)
(17.6959 0.140197 17.5367)
(17.8617 0.204093 17.5347)
(18.0923 0.271584 17.5317)
(18.3918 0.336956 17.5286)
(18.7597 0.385115 17.5244)
(19.163 0.400948 17.5201)
(19.5795 0.356958 17.5155)
(19.8956 0.248645 17.5122)
(20.0905 0.108997 17.5103)
(20.1234 -0.0185797 17.5095)
(20.045 -0.115929 17.5083)
(19.8764 -0.181029 17.5098)
(19.6724 -0.218007 17.5136)
(19.43 -0.23455 17.5169)
(19.2158 -0.239315 17.5183)
(18.9388 -0.230999 17.5213)
(18.7949 -0.226711 17.5232)
(18.4474 -0.217687 17.5276)
(17.6222 0.0163215 17.6176)
(17.6699 0.0492839 17.6173)
(17.7769 0.084341 17.6164)
(17.944 0.122578 17.6153)
(18.1749 0.162457 17.6137)
(18.4712 0.201157 17.6118)
(18.8305 0.228384 17.6096)
(19.2198 0.239381 17.6072)
(19.6127 0.210152 17.6047)
(19.9244 0.150315 17.6028)
(20.1115 0.0649375 17.6016)
(20.1426 -0.00990367 17.6011)
(20.0763 -0.0673847 17.6003)
(19.9184 -0.106353 17.6014)
(19.7222 -0.128912 17.6045)
(19.4867 -0.139384 17.6066)
(19.2759 -0.143 17.6073)
(19.0014 -0.138757 17.6092)
(18.8575 -0.136615 17.6104)
(18.5091 -0.131424 17.6133)
(17.697 0.00543179 17.6922)
(17.7448 0.0164229 17.6918)
(17.8524 0.0281034 17.6913)
(18.0199 0.0408171 17.6906)
(18.2508 0.0539738 17.6898)
(18.5451 0.0665769 17.689)
(18.9021 0.0748469 17.688)
(19.2777 0.0793004 17.6871)
(19.6843 0.0677374 17.6862)
(19.9512 0.0489324 17.6856)
(20.1795 0.0268731 17.6851)
(20.1791 -0.00869002 17.6845)
(20.1251 -0.0241326 17.6842)
(19.9726 -0.0357906 17.6842)
(19.7795 -0.0430003 17.6841)
(19.547 -0.0467741 17.6837)
(19.3381 -0.0481796 17.6835)
(19.0639 -0.0466974 17.6833)
(18.919 -0.0458498 17.683)
(18.5687 -0.0438304 17.6829)
(14.6312 0.196912 14.579)
(15.0396 0.291619 14.5757)
(14.7646 0.10492 14.5537)
(14.6473 0.455097 14.5198)
(14.0589 0.595191 14.149)
(13.0879 0.820801 13.8045)
(15.1908 0.135775 15.1686)
(15.3308 0.241337 15.1623)
(15.1655 0.326281 15.1464)
(15.0104 0.583244 15.1073)
(14.7127 0.860752 15.042)
(14.1474 1.3951 14.9698)
(13.1442 2.53116 14.77)
(10.0788 4.51417 13.6)
(-2.68726 0.38563 10.2069)
(-0.366372 -0.325933 11.4403)
(3.44699 -0.571034 11.5421)
(6.4022 -0.572414 11.7818)
(7.50007 -0.363547 12.0664)
(10.2753 -0.798836 13.0081)
(15.6439 0.140603 15.6223)
(15.6482 0.256403 15.6157)
(15.5598 0.470251 15.596)
(15.4144 0.742112 15.562)
(15.1702 1.15991 15.5162)
(14.8217 1.92647 15.4228)
(14.4099 3.53363 15.2847)
(14.1354 5.80013 14.9228)
(1.68534 -0.27992 8.4277)
(9.88717 -1.25846 10.9789)
(13.0282 -1.91831 12.951)
(14.6167 -1.65137 14.2557)
(15.995 -1.24933 14.811)
(16.0177 -1.08549 14.763)
(16.3722 -1.01552 14.9805)
(15.9187 0.123985 15.9035)
(15.9228 0.283222 15.8973)
(15.8628 0.500089 15.8806)
(15.7656 0.801007 15.8524)
(15.6401 1.24635 15.8158)
(15.474 2.01423 15.7315)
(15.6179 3.39776 15.6187)
(15.8276 5.20794 15.4095)
(19.0969 7.82065 14.6548)
(20.5827 2.75402 13.8886)
(16.3394 -1.76789 13.7189)
(18.2885 -1.7895 15.0273)
(18.2255 -1.91773 15.027)
(17.8412 -1.8566 15.2601)
(17.4707 -1.57531 15.4187)
(17.3663 -1.15837 15.5125)
(17.3744 -1.12968 15.5132)
(17.3312 -1.00451 15.5879)
(16.1487 0.119 16.1384)
(16.1562 0.295524 16.1326)
(16.1261 0.523317 16.1179)
(16.0828 0.833644 16.0944)
(16.0475 1.28354 16.0616)
(16.0788 1.97282 15.9956)
(16.3821 3.14974 15.9039)
(17.7992 4.37759 15.7505)
(19.8095 4.84354 15.5152)
(21.5741 2.76554 15.2373)
(22.7255 0.616009 15.0775)
(21.187 -1.78455 15.1106)
(19.7159 -1.73109 15.4483)
(19.1924 -1.57849 15.5231)
(18.8559 -1.73214 15.5507)
(18.3541 -1.68276 15.6703)
(17.9372 -1.44189 15.7514)
(17.7491 -1.16453 15.8121)
(17.7187 -1.10904 15.8304)
(17.5949 -0.998744 15.8861)
(16.3476 0.111362 16.3399)
(16.3602 0.299337 16.3349)
(16.3572 0.529479 16.3222)
(16.3593 0.835594 16.3017)
(16.4045 1.26159 16.2749)
(16.5469 1.87966 16.216)
(17.0036 2.73307 16.1601)
(18.2616 3.81979 16.0189)
(20.2778 3.1883 15.882)
(21.4811 2.17401 15.7811)
(21.8325 0.17854 15.7548)
(21.1089 -0.913684 15.7728)
(19.9557 -1.41544 15.8297)
(19.5118 -1.4455 15.8783)
(19.1393 -1.53849 15.9198)
(18.6551 -1.47965 15.9993)
(18.3069 -1.32977 16.042)
(18.0612 -1.10529 16.087)
(17.9923 -1.05163 16.1048)
(17.7888 -0.960327 16.152)
(16.5225 0.105408 16.5165)
(16.5406 0.296365 16.5121)
(16.5608 0.52279 16.5012)
(16.6038 0.815395 16.484)
(16.7042 1.20845 16.4606)
(16.935 1.73697 16.414)
(17.4124 2.40042 16.364)
(18.5371 3.08709 16.2824)
(20.0746 2.68115 16.1785)
(21.1159 1.7303 16.1091)
(21.4405 0.316619 16.0703)
(20.8912 -0.829817 16.0786)
(20.1774 -1.1999 16.1148)
(19.6828 -1.2938 16.1571)
(19.289 -1.36269 16.1923)
(18.8294 -1.32486 16.245)
(18.5076 -1.21611 16.2731)
(18.2231 -1.04009 16.312)
(18.1319 -0.993722 16.3321)
(17.8911 -0.914089 16.3722)
(16.6787 0.098763 16.6736)
(16.7022 0.286602 16.6698)
(16.7423 0.503854 16.6604)
(16.8181 0.777582 16.6461)
(16.961 1.1295 16.6257)
(17.2402 1.57868 16.5888)
(17.731 2.08097 16.5495)
(18.6921 2.56064 16.4896)
(19.9363 2.24903 16.4234)
(20.8018 1.49905 16.3698)
(21.1181 0.332789 16.3476)
(20.7821 -0.520902 16.3443)
(20.2132 -0.927868 16.3494)
(19.7415 -1.08075 16.3879)
(19.3663 -1.16469 16.4232)
(18.9506 -1.15396 16.4641)
(18.6536 -1.08559 16.4865)
(18.361 -0.95643 16.5166)
(18.2535 -0.917899 16.5343)
(17.9808 -0.85221 16.5663)
(16.8195 0.0916382 16.8151)
(16.8479 0.271654 16.8117)
(16.9047 0.475656 16.8036)
(17.0061 0.726345 16.7916)
(17.1807 1.03621 16.7749)
(17.4856 1.41026 16.747)
(17.9747 1.79891 16.7133)
(18.7998 2.12653 16.67)
(19.8106 1.87805 16.6251)
(20.5486 1.25249 16.5885)
(20.8453 0.364344 16.5741)
(20.621 -0.38794 16.5675)
(20.1828 -0.784124 16.5717)
(19.7702 -0.951055 16.5995)
(19.4245 -1.03146 16.6251)
(19.0472 -1.02997 16.6528)
(18.7685 -0.981625 16.6687)
(18.4724 -0.877564 16.6922)
(18.3512 -0.842653 16.707)
(18.0558 -0.787185 16.7329)
(16.9479 0.0842259 16.9438)
(16.9806 0.252035 16.9408)
(17.0508 0.43961 16.9341)
(17.1723 0.664762 16.924)
(17.3692 0.933472 16.9104)
(17.6859 1.24448 16.8887)
(18.1604 1.54201 16.8625)
(18.8765 1.76317 16.8299)
(19.7167 1.56282 16.7969)
(20.3444 1.05968 16.7698)
(20.6227 0.344079 16.7598)
(20.4859 -0.267329 16.7541)
(20.1566 -0.611048 16.7541)
(19.7916 -0.781877 16.7745)
(19.4717 -0.866488 16.7938)
(19.1207 -0.881119 16.8147)
(18.8547 -0.854708 16.8279)
(18.5576 -0.78097 16.8472)
(18.4286 -0.755161 16.8589)
(18.1171 -0.712045 16.8788)
(17.0659 0.0761177 17.0618)
(17.1024 0.228895 17.0593)
(17.1833 0.397692 17.0538)
(17.3196 0.595882 17.0456)
(17.5312 0.825433 17.0344)
(17.8518 1.07964 17.0177)
(18.3068 1.30861 16.9969)
(18.9371 1.45694 16.9725)
(19.6435 1.29537 16.9484)
(20.1889 0.882832 16.9285)
(20.4445 0.318776 16.9211)
(20.3673 -0.18123 16.9181)
(20.1107 -0.492694 16.915)
(19.7959 -0.662024 16.9299)
(19.5042 -0.748356 16.9452)
(19.1821 -0.770091 16.961)
(18.9298 -0.754878 16.9704)
(18.6358 -0.69721 16.9854)
(18.5005 -0.674469 16.9946)
(18.176 -0.637919 17.0108)
(17.175 0.0673128 17.1708)
(17.2147 0.202916 17.1688)
(17.3039 0.351255 17.1643)
(17.451 0.52209 17.1577)
(17.6719 0.71471 17.1488)
(17.9914 0.921233 17.1355)
(18.4244 1.0961 17.1198)
(18.9851 1.19521 17.1016)
(19.5924 1.06401 17.0834)
(20.0707 0.731284 17.0684)
(20.3048 0.285771 17.0628)
(20.2698 -0.124469 17.0609)
(20.0753 -0.387445 17.057)
(19.8051 -0.541457 17.0667)
(19.5361 -0.620329 17.0808)
(19.2366 -0.645056 17.0922)
(18.9936 -0.638752 17.0993)
(18.7016 -0.598123 17.1113)
(18.5623 -0.581797 17.1184)
(18.229 -0.554615 17.131)
(17.2764 0.0579093 17.2721)
(17.3187 0.17474 17.2705)
(17.4141 0.301449 17.2669)
(17.5689 0.444921 17.2616)
(17.7952 0.603108 17.2546)
(18.1103 0.76717 17.2444)
(18.5227 0.899591 17.2324)
(19.0279 0.965994 17.2191)
(19.5611 0.858074 17.2059)
(19.9853 0.594833 17.1949)
(20.201 0.24685 17.1908)
(20.1953 -0.0842342 17.1889)
(20.0462 -0.301616 17.1855)
(19.8111 -0.439144 17.1917)
(19.5634 -0.51095 17.2029)
(19.2816 -0.539215 17.2119)
(19.049 -0.539628 17.2172)
(18.7619 -0.510077 17.2264)
(18.6207 -0.497017 17.2318)
(18.2815 -0.474796 17.2414)
(17.371 0.048003 17.3666)
(17.4154 0.144889 17.3654)
(17.5154 0.249217 17.3626)
(17.6755 0.36567 17.3586)
(17.904 0.491907 17.3532)
(18.2138 0.619376 17.3456)
(18.6082 0.717624 17.3366)
(19.07 0.762942 17.3269)
(19.5463 0.676715 17.3171)
(19.9335 0.470032 17.3093)
(20.1307 0.203572 17.3063)
(20.1445 -0.0569062 17.3048)
(20.0277 -0.231423 17.3016)
(19.8241 -0.344899 17.3051)
(19.5938 -0.407417 17.3128)
(19.3287 -0.431941 17.3208)
(19.1036 -0.434493 17.3252)
(18.82 -0.413755 17.3324)
(18.6776 -0.404417 17.3364)
(18.3338 -0.38821 17.3435)
(17.4598 0.0377051 17.4553)
(17.5057 0.113803 17.4544)
(17.609 0.195267 17.4523)
(17.7726 0.285201 17.4495)
(18.0024 0.381237 17.4451)
(18.3061 0.475713 17.4401)
(18.6873 0.546453 17.4337)
(19.1097 0.576457 17.427)
(19.5719 0.507253 17.4199)
(19.8806 0.360893 17.4149)
(20.1344 0.16456 17.4125)
(20.1231 -0.0384376 17.4113)
(20.0271 -0.171937 17.409)
(19.8434 -0.261213 17.4098)
(19.6277 -0.310521 17.4163)
(19.3755 -0.332057 17.4225)
(19.1572 -0.336646 17.4256)
(18.8776 -0.323142 17.4307)
(18.7347 -0.31663 17.4335)
(18.3887 -0.304498 17.4387)
(17.5433 0.0271182 17.5388)
(17.5903 0.0818486 17.5382)
(17.6959 0.140176 17.5368)
(17.8617 0.204088 17.5349)
(18.0923 0.271475 17.5319)
(18.3918 0.33695 17.5285)
(18.7597 0.385169 17.5243)
(19.163 0.401041 17.52)
(19.5794 0.357004 17.5154)
(19.8958 0.248679 17.512)
(20.0905 0.108629 17.5104)
(20.1233 -0.0184059 17.5098)
(20.0448 -0.115823 17.5082)
(19.8764 -0.18115 17.5088)
(19.6723 -0.217928 17.5131)
(19.4301 -0.234343 17.5172)
(19.2163 -0.238581 17.5192)
(18.9392 -0.229784 17.5227)
(18.7957 -0.225377 17.5246)
(18.4478 -0.217104 17.5283)
(17.6223 0.0163202 17.6177)
(17.6699 0.0492877 17.6173)
(17.777 0.084331 17.6165)
(17.944 0.122579 17.6153)
(18.1748 0.162464 17.6138)
(18.4712 0.201184 17.6118)
(18.8305 0.228406 17.6094)
(19.2198 0.239431 17.607)
(19.6127 0.210144 17.6046)
(19.9246 0.150285 17.6027)
(20.1115 0.0648592 17.6017)
(20.1425 -0.009825 17.6013)
(20.0762 -0.0673235 17.6003)
(19.9184 -0.106551 17.6007)
(19.7223 -0.128827 17.6043)
(19.4869 -0.139243 17.607)
(19.2764 -0.142515 17.608)
(19.0015 -0.138017 17.6101)
(18.8579 -0.135828 17.6113)
(18.5093 -0.131096 17.6136)
(17.697 0.00543238 17.6922)
(17.7448 0.0164245 17.6918)
(17.8524 0.0281006 17.6913)
(18.0199 0.0408177 17.6906)
(18.2508 0.0539436 17.6898)
(18.5451 0.0665619 17.6889)
(18.9021 0.0748316 17.6879)
(19.2777 0.0793171 17.687)
(19.6844 0.0677228 17.6861)
(19.9512 0.0489223 17.6855)
(20.1794 0.0268346 17.6852)
(20.179 -0.00859832 17.6846)
(20.125 -0.0241924 17.6842)
(19.9727 -0.0359461 17.684)
(19.7794 -0.0429107 17.684)
(19.5467 -0.0466366 17.6839)
(19.3381 -0.0479674 17.6836)
(19.0638 -0.0464662 17.6835)
(18.9191 -0.0456343 17.6832)
(18.5688 -0.0437572 17.683)
(14.6314 0.194618 14.579)
(15.0334 0.291543 14.5732)
(14.7676 0.10164 14.5599)
(14.6596 0.454303 14.525)
(14.1101 0.588369 14.197)
(13.1099 0.826572 13.8238)
(15.1911 0.135816 15.1696)
(15.3292 0.243513 15.161)
(15.1661 0.32626 15.1487)
(15.0104 0.583282 15.1085)
(14.7129 0.861192 15.0424)
(14.1463 1.39382 14.9693)
(13.1609 2.54836 14.7795)
(10.2167 4.54492 13.7087)
(-2.55007 0.36526 10.0595)
(-0.392203 -0.294832 11.5194)
(3.48925 -0.54347 11.7514)
(6.84435 -0.678259 11.9956)
(7.81275 -0.330768 12.1646)
(10.2117 -0.79283 12.89)
(15.6438 0.14073 15.622)
(15.6474 0.257399 15.6147)
(15.5596 0.470845 15.5962)
(15.4143 0.742333 15.562)
(15.1702 1.16039 15.5154)
(14.8255 1.92918 15.4274)
(14.4066 3.53729 15.2881)
(14.1279 5.79481 14.8913)
(1.85772 -0.520376 9.13287)
(9.60593 -1.18637 10.8715)
(12.8817 -1.83741 12.7683)
(14.5135 -1.70348 14.1435)
(15.9974 -1.25823 14.838)
(16.0532 -1.08424 14.8061)
(16.4017 -0.998586 15.0053)
(15.9186 0.123968 15.9033)
(15.9224 0.283666 15.8966)
(15.8628 0.500358 15.8803)
(15.7655 0.801199 15.8522)
(15.6396 1.24677 15.8152)
(15.4766 2.01368 15.7344)
(15.613 3.39544 15.6204)
(15.8227 5.21821 15.4074)
(19.2038 7.80092 14.7353)
(20.6042 2.86601 13.8295)
(16.3311 -1.89274 13.8962)
(18.2943 -1.81186 15.0664)
(18.199 -1.89011 15.0409)
(17.8503 -1.84719 15.2368)
(17.4896 -1.58804 15.4139)
(17.3571 -1.17423 15.527)
(17.3678 -1.13011 15.5277)
(17.3303 -0.998494 15.5904)
(16.1486 0.11902 16.1382)
(16.156 0.295613 16.132)
(16.1261 0.523389 16.1175)
(16.0828 0.833645 16.0942)
(16.047 1.28354 16.061)
(16.0811 1.97209 15.9988)
(16.3799 3.14947 15.9035)
(17.8 4.37549 15.7541)
(19.8103 4.84496 15.5381)
(21.5846 2.7692 15.265)
(22.7245 0.613985 15.076)
(21.2209 -1.72275 15.1176)
(19.7049 -1.74815 15.4489)
(19.1788 -1.59807 15.5383)
(18.844 -1.70352 15.555)
(18.3756 -1.67985 15.6607)
(17.9536 -1.45546 15.7547)
(17.7449 -1.17068 15.8204)
(17.7143 -1.10545 15.8371)
(17.5925 -0.996029 15.8878)
(16.3475 0.111358 16.3398)
(16.36 0.299357 16.3344)
(16.3572 0.529531 16.322)
(16.3593 0.835613 16.3016)
(16.4041 1.26149 16.2744)
(16.5482 1.87906 16.2188)
(17.0026 2.73328 16.1601)
(18.26 3.81699 16.0235)
(20.2772 3.1924 15.8876)
(21.4805 2.16965 15.7857)
(21.8117 0.171766 15.7442)
(21.1374 -0.900023 15.7646)
(19.9804 -1.41679 15.8331)
(19.4953 -1.46367 15.8892)
(19.1288 -1.5342 15.9201)
(18.6652 -1.48102 15.9931)
(18.3113 -1.3334 16.046)
(18.0561 -1.10609 16.0943)