# vtk DataFile Version 2.0
tracks
ASCII
DATASET POLYDATA
POINTS 4860 float
-1.001 -0.05 0.0011 -0.651563 -0.0409844 0.00161422 -0.302131 -0.0317979 0.00213254 0.0472969 -0.0224402
0.00265491 0.39672 -0.0129111 0.0031813 0.746185 -0.00320883 0.00371173 2.19662 0.037784 0.00592949
3.64677 0.0877191 0.00703104 5.09656 0.147534 0.00714923 6.54618 0.211061 0.00716056 7.99846
0.278158 0.00710363 9.44895 0.348638 0.00698044 10.8993 0.422723 0.00679996 12.3494 0.500431
0.00656319 13.7993 0.581761 0.00627164 15.251 0.665891 0.00593017 16.7021 0.751491 0.00585382
18.1529 0.841811 0.00579365 19.6033 0.938312 0.00577797 21.0533 1.04105 0.00580688 22.5067
1.15038 0.00588068 22.8597 1.17849 0.0059096 23.2127 1.20697 0.00594618 23.5656 1.236
0.00597741 23.9185 1.26559 0.00600324 24.2152 1.29093 0.00602036 25.325 1.38723 0.00607007
26.4344 1.48861 0.00608381 27.5433 1.59511 0.00607012 28.6517 1.70677 0.00602883 29.7645
1.82415 0.00595944 31.2146 1.98391 0.00591523 32.6631 2.15804 0.00584467 34.1098 2.34674
0.00573952 35.5544 2.55014 0.00560114 37.016 2.77301 0.00538148 38.4767 3.01344 0.00506583
39.9337 3.27522 0.00448018 41.3868 3.55839 0.00387318 42.8355 3.86261 0.00370083 43.8141
4.083 0.00388942 45.3475 4.44419 0.00452814 46.87 4.84841 0.00504152 48.3788 5.30161
0.00530809 49.8724 5.80236 0.00532432 51.4764 6.37486 0.0052205 51.8209 6.5053 0.0051723
52.1645 6.63802 0.00518825 52.5071 6.77355 0.00522162 52.8489 6.91088 0.00521023 53.136
7.02658 0.00521748 54.2374 7.47139 0.00531178 55.3353 7.92471 0.00557754 56.4299 8.3861
0.00600072 57.5202 8.85755 0.00592969 58.6423 9.35665 0.00461554 58.9973 9.51235 0.00420286
59.3527 9.66686 0.00391343 59.7087 9.82016 0.00375098 60.0652 9.9723 0.00371365 60.4524
10.1361 0.00380691 61.5305 10.5878 0.00447427 62.6107 11.0345 0.00635662 63.6974 11.4651
0.00659921 64.7902 11.8798 0.00607668 65.8425 12.2627 0.00599334 66.3785 12.4522 0.00601075
66.9165 12.6363 0.00598222 67.4563 12.8148 0.00591348 67.9975 12.9891 0.00582532 68.704
13.2113 0.00569698 69.6029 13.4854 0.00552618 70.5061 13.745 0.00539277 71.4154 13.9823
0.00562639 72.3301 14.198 0.00621305 73.1975 14.3903 0.00700006 73.5712 14.4683 0.00743254
73.9451 14.5447 0.00797047 74.3193 14.6197 0.00861269 74.6938 14.6933 0.00935911 75.1466
14.7804 0.0103867 75.4853 14.8439 0.0112665 75.8241 14.9066 0.0122247 76.1631 14.9684
0.0132533 76.5022 15.0295 0.0143523 76.84 15.0893 0.0155153 77.5667 15.2156 0.0181122
78.2938 15.3395 0.0200576 79.0213 15.4612 0.0214032 79.7492 15.5807 0.0222157 80.4736
15.6976 0.0224952 81.1987 15.8124 0.0222625 81.9245 15.9223 0.0214303 82.6511 16.0273
0.0203569 83.3783 16.1273 0.0192584 84.099 16.2215 0.0181448 84.2598 16.2414 0.0179171
84.4206 16.2611 0.0177238 84.5815 16.2806 0.0175477 84.7423 16.3 0.0173887 84.9218
16.3215 0.0172303 85.4791 16.3878 0.0167314 86.0366 16.4525 0.0164075 86.5943 16.5156
0.0162539 87.1521 16.577 0.0162704 87.7083 16.6366 0.0164562 89.1533 16.7872 0.017346
90.5979 16.9418 0.0165627 92.042 17.1002 0.0141042 93.4877 17.2439 0.0148675 94.9332
17.3729 0.0170763 95.6688 17.4325 0.0164484 96.4051 17.4839 0.0160935 97.1419 17.527
0.0160268 97.8791 17.5618 0.0162763 98.6114 17.5877 0.0165685 99.3425 17.604 0.0163117
100.074 17.6112 0.0156706 100.805 17.6105 0.0154149 101.536 17.602 0.0156324 102.267
17.5857 0.0162981 103.723 17.5381 0.0185059 105.177 17.4771 0.0180329 106.632 17.4019
0.0158395 108.085 17.3095 0.0161859 109.544 17.1989 0.017 110.995 17.0705 0.0171526
112.445 16.9307 0.0172351 113.893 16.7716 0.0173099 115.339 16.5918 0.0173833 116.8
16.4043 0.0173505 117.104 16.364 0.0173241 117.409 16.3234 0.0172976 117.713 16.2826
0.017272 118.017 16.2417 0.0172475 118.307 16.2025 0.0172252 118.727 16.1454 0.0171967
119.147 16.0879 0.0172036 119.567 16.03 0.0172139 119.987 15.9718 0.0172274 120.408
15.9132 0.0172443 121.142 15.8103 0.0172223 121.876 15.7065 0.0171613 122.61 15.6019
0.0170981 123.344 15.4966 0.0170325 124.079 15.3903 0.0169644 125.525 15.1797 0.0168787
126.97 14.9587 0.0167944 128.413 14.7278 0.0166961 129.856 14.4972 0.0165394 131.31
14.2617 0.0162564 132.503 14.0531 0.0159392 133.695 13.8373 0.0155961 134.883 13.5998
0.0152436 136.065 13.3336 0.0148764 136.477 13.2337 0.0148065 136.907 13.1275 0.0147723
137.336 13.0189 0.0146958 137.764 12.908 0.0146401 138.192 12.7946 0.0146051 138.626
12.6771 0.0145902 140.092 12.2708 0.014746 141.554 11.8531 0.0148079 143.013 11.4229
0.0137392 144.468 10.9798 0.0130163 145.954 10.5273 0.013694 146.055 10.4972 0.013839
146.156 10.4671 0.0139814 146.257 10.4371 0.014123 146.358 10.4072 0.0142637 146.461
10.3767 0.0144063 147.785 9.98661 0.0162484 149.11 9.60053 0.0186744 150.439 9.22497
0.0212501 151.776 8.88379 0.0224182 153.084 8.58431 0.0229101 154.002 8.39799 0.0228299
154.921 8.22112 0.0227598 155.842 8.05369 0.0227018 156.765 7.89579 0.022656 158.242
7.65895 0.0226027 158.637 7.60237 0.0225978 159.032 7.54771 0.0225942 159.427 7.49495
0.0225928 159.822 7.44407 0.0225935 160.215 7.39541 0.0225963 161.673 7.22177 0.0226165
163.132 7.05799 0.0226259 164.593 6.90444 0.0226212 166.054 6.76101 0.0226021 167.505
6.62863 0.022569 168.96 6.50561 0.0225224 170.416 6.38383 0.022481 171.872 6.26324
0.0224442 173.328 6.14555 0.0224158 174.783 6.03138 0.0223969 176.242 5.92025 0.0223878
177.701 5.81058 0.0223803 179.16 5.70241 0.0223741 180.62 5.59575 0.0223692 182.078
5.49153 0.0223659 183.519 5.39136 0.0223644 184.961 5.29605 0.0223636 186.404 5.20563
0.0223632 187.846 5.12014 0.0223632 189.286 5.0398 0.0223636 190.733 4.96412 0.0223644
192.18 4.89679 0.0223654 193.627 4.83794 0.0223666 195.075 4.78766 0.0223678 196.519
4.74613 0.0223691 197.134 4.73194 0.0223694 197.749 4.71998 0.02237 198.364 4.70944
0.0223706 198.979 4.70032 0.0223712 200.408 4.68246 0.0223726 201.075 4.67789 0.0223733
201.742 4.67519 0.0223748 202.409 4.67435 0.0223763 203.076 4.67535 0.0223777 203.743
4.67823 0.0223792 205.192 4.68844 0.0223807 206.641 4.71238 0.0223809 207.598 4.73745
0.022381 209.046 4.7849 0.0223824 210.989 4.86791 0.0223841 212.448 4.95026 0.022386
213.906 5.05228 0.0223875 215.362 5.17518 0.0223888 216.816 5.3189 0.0223901 218.284
5.48515 0.0223913 219.744 5.67176 0.0223925 221.2 5.88376 0.0223938 222.651 6.13385
0.022395 224.088 6.45184 0.0223961 225.584 6.84549 0.0223972 228.224 7.63783 0.0223984
230.873 8.40313 0.0224013 233.526 9.15091 0.022404 236.182 9.88698 0.0224065 239.55
10.8092 0.0224094 239.64 10.8342 0.0224094 239.73 10.8592 0.0224094 239.82 10.8841
0.0224094 239.91 10.9091 0.0224094 240 10.9341 0.0224095 -1.001 -0.05 0.0537316
-0.651572 -0.0409877 0.054245 -0.302149 -0.0318047 0.0547626 0.0472692 -0.0224504 0.0552842 0.396683
-0.0129247 0.0558099 0.746139 -0.00322595 0.0563396 2.19657 0.0378819 0.0585526 3.64673 0.0877479
0.0596454 5.09652 0.147477 0.0597523 6.54615 0.210929 0.0597507 7.99841 0.277949 0.0596807
9.4489 0.348442 0.0595485 10.8992 0.42242 0.0593628 12.3493 0.500021 0.0591207 13.7993
0.581245 0.0588237 15.2509 0.665252 0.0584769 16.702 0.750851 0.0583897 18.1528 0.841151
0.058322 19.6033 0.937631 0.0582988 21.0533 1.04035 0.0583202 22.5067 1.14965 0.0583864
22.8654 1.17822 0.0584143 23.2242 1.20719 0.0584493 23.5828 1.23672 0.0584788 23.9415
1.26683 0.0585027 24.2413 1.29249 0.0585179 25.3459 1.38844 0.0585622 26.45 1.48947
0.0584951 27.5537 1.59557 0.0584008 28.6568 1.70678 0.058279 29.7644 1.82366 0.058129
31.2147 1.98343 0.0580836 32.6633 2.15742 0.0580956 34.1101 2.34597 0.0580736 35.5548
2.54923 0.0580189 37.0165 2.77194 0.0578843 38.4771 3.01237 0.0575667 39.9341 3.2743
0.0569033 41.387 3.55761 0.0562196 42.8357 3.86197 0.0559707 43.8072 4.08085 0.0561065
45.3422 4.44231 0.0567455 46.8666 4.84638 0.0572619 48.3771 5.29953 0.0575311 49.8725
5.80035 0.0575495 51.4779 6.37288 0.0574474 51.8222 6.50326 0.0574031 52.1656 6.63574
0.0574162 52.508 6.77096 0.057452 52.8497 6.90799 0.0574431 53.1389 7.02429 0.0574555
54.24 7.46943 0.0574854 55.3379 7.92268 0.0577644 56.4324 8.384 0.0582006 57.5225
8.85539 0.0581423 58.6439 9.35385 0.056861 58.9995 9.50997 0.056448 59.3555 9.66517
0.0560955 59.712 9.81916 0.0558711 60.0691 9.97197 0.0557729 60.4541 10.1353 0.055801
61.5318 10.5868 0.0564406 62.6117 11.0332 0.0582873 63.698 11.4637 0.0585454 64.7905
11.8784 0.058035 65.8425 12.2612 0.057963 66.3792 12.4511 0.0579442 66.9178 12.6356
0.0578224 67.4583 12.8146 0.057661 68.0002 12.9893 0.057481 68.7054 13.2114 0.057235
69.604 13.4854 0.0570625 70.5068 13.7453 0.0569408 71.4158 13.9828 0.0571861 72.3301
14.1988 0.0577843 73.1976 14.3914 0.0585824 73.5697 14.4691 0.0590329 73.9421 14.5452
0.0595956 74.3149 14.6198 0.0602619 74.6879 14.693 0.0610315 75.1419 14.7803 0.0620931
75.4815 14.844 0.0629922 75.8213 14.9068 0.06401 76.1613 14.9688 0.0650987 76.5014
15.0299 0.0662583 76.84 15.0897 0.0674815 77.5667 15.216 0.07004 78.2938 15.3399
0.0718782 79.0213 15.4616 0.0731167 79.7492 15.5812 0.0738225 80.4736 15.6981 0.0739963
81.1986 15.8128 0.0736851 81.9243 15.9234 0.0725103 82.6508 16.029 0.0710961 83.3779
16.1297 0.0696591 84.0989 16.2246 0.0682116 84.255 16.2439 0.0679902 84.4113 16.2629
0.0678614 84.5675 16.2817 0.0677489 84.7238 16.3004 0.0676524 84.9033 16.3218 0.0675235
85.4643 16.3887 0.0670136 86.0255 16.4538 0.0666941 86.5869 16.5173 0.0665471 87.1484
16.5791 0.0665726 87.7083 16.6391 0.0667694 89.1533 16.7896 0.0675952 90.5979 16.944
0.066856 92.042 17.1023 0.0644407 93.4877 17.2461 0.0651754 94.9333 17.3753 0.0673446
95.6689 17.4349 0.0667041 96.4051 17.4868 0.0663728 97.1418 17.5304 0.0663282 97.879
17.5657 0.0665983 98.6114 17.5921 0.0669221 99.3425 17.6084 0.0666653 100.074 17.6151
0.0659721 100.805 17.6139 0.0656745 101.536 17.6049 0.0658488 102.267 17.5881 0.0664702
103.723 17.5405 0.0687029 105.178 17.4795 0.0682602 106.632 17.4044 0.0660831 108.085
17.312 0.0664465 109.544 17.2014 0.0672297 110.995 17.073 0.0673804 112.445 16.933
0.0674579 113.893 16.7737 0.0675272 115.338 16.5941 0.0675937 116.799 16.4067 0.0675539
117.114 16.3649 0.067536 117.428 16.323 0.0675142 117.743 16.2808 0.0674936 118.058
[...]
POINT_DATA 4860
FIELD attributes 4
age 1 4860 float
0 0.091043 0.1821 0.27317 0.364255 0.455365 0.833575 1.21171 1.59061 1.96992 2.35035
2.73074 3.11176 3.4934 3.87567 4.2591 4.64295 5.02795 5.41397 5.80098 6.19004
6.2848 6.37969 6.47466 6.56971 6.6497 6.94919 7.24957 7.55083 7.85296 8.15733
8.55496 8.95471 9.35652 9.76034 10.1701 10.5805 10.9934 11.4078 11.8223 12.1031
12.5436 12.9806 13.4118 13.8369 14.2843 14.3783 14.4717 14.5643 14.6559 14.7325
15.0254 15.3141 15.5984 15.8779 16.161 16.2488 16.3361 16.4227 16.5087 16.6014
16.857 17.1072 17.3454 17.5752 17.7913 17.9001 18.0084 18.116 18.223 18.3613
18.5351 18.7069 18.878 19.0482 19.2088 19.2776 19.3463 19.4151 19.4839 19.5669
19.629 19.691 19.753 19.815 19.8766 20.0089 20.1413 20.2737 20.4062 20.5381
20.6702 20.8026 20.9352 21.068 21.1995 21.2289 21.2582 21.2875 21.3168 21.3495
21.4508 21.552 21.6529 21.7536 21.8538 22.1135 22.3703 22.6244 22.876 23.1261
23.2539 23.382 23.5102 23.6384 23.7657 23.8924 24.0193 24.1461 24.2727 24.3991
24.6503 24.9006 25.1502 25.4009 25.655 25.9106 26.1678 26.4274 26.6895 26.9573
27.0138 27.0704 27.1271 27.1839 27.2381 27.3169 27.3959 27.4752 27.5547 27.6346
27.7744 27.9147 28.0554 28.1963 28.3379 28.6171 28.8972 29.1783 29.4597 29.7427
29.9745 30.2075 30.4411 30.675 30.7575 30.8444 30.9316 31.0191 31.1071 31.1967
31.5012 31.8088 32.1227 32.451 32.7991 32.8234 32.8477 32.8721 32.8965 32.9214
33.2417 33.5682 33.9009 34.2387 34.5712 34.8059 35.0412 35.277 35.5134 35.8916
35.9927 36.0939 36.195 36.2962 36.3968 36.7697 37.1407 37.5104 37.8788 38.243
38.6069 38.9699 39.332 39.6936 40.0542 40.4152 40.7769 41.1393 41.5024 41.8658
42.2257 42.5867 42.9489 43.3123 43.6759 44.0423 44.4098 44.7784 45.1481 45.5179
45.6757 45.8337 45.9919 46.1504 46.5194 46.6921 46.865 47.0382 47.2116 47.3853
47.7633 48.1423 48.393 48.7734 49.285 49.6703 50.0558 50.4415 50.8272 51.2169
51.605 51.9851 52.3595 52.7329 53.122 53.8054 54.4474 55.0538 55.6288 56.3217
56.3392 56.3567 56.3741 56.3916 56.409 0 0.0910368 0.182088 0.273152 0.36423
0.455334 0.833542 1.21169 1.59058 1.96988 2.3503 2.73069 3.1117 3.49334 3.87559
4.25901 4.64285 5.02784 5.41384 5.80085 6.18988 6.2862 6.38263 6.47914 6.57575
6.6566 6.9547 7.25367 7.55351 7.85421 8.15714 8.5548 8.95454 9.35635 9.76017
10.1699 10.5802 10.993 11.4074 11.8219 12.1005 12.5415 12.9789 13.4107 13.8362
14.284 14.3779 14.4712 14.5638 14.6553 14.7324 15.0253 15.314 15.5985 15.8781
16.1611 16.2491 16.3366 16.4235 16.5098 16.602 16.8576 17.1076 17.3459 17.5758
17.7919 17.9008 18.0093 18.1171 18.2242 18.3623 18.5361 18.7079 18.8789 19.0491
19.2097 19.2782 19.3467 19.4152 19.4837 19.5669 19.6292 19.6914 19.7536 19.8157
19.8775 20.0098 20.1421 20.2745 20.4069 20.5388 20.6708 20.8033 20.9359 21.0687
21.2003 21.2288 21.2573 21.2858 21.3142 21.3469 21.4489 21.5508 21.6524 21.7538
21.8546 22.1142 22.3712 22.6253 22.877 23.1271 23.255 23.3831 23.5113 23.6396
23.7669 23.8937 24.0206 24.1474 24.274 24.4004 24.6517 24.9021 25.1518 25.4025
25.6566 25.9122 26.1695 26.429 26.6911 26.9589 27.0173 27.0758 27.1344 27.1932
27.2491 27.326 27.4032 27.4806 27.5582 27.6362 27.7761 27.9164 28.0571 28.1981
28.3397 28.6189 28.8991 29.1802 29.4616 29.7446 29.9784 30.2136 30.4493 30.6852
30.7659 30.8514 30.9373 31.0235 31.1101 31.1983 31.5029 31.8109 32.125 32.4535
32.8016 32.8261 32.8506 32.8752 32.8998 32.9249 33.245 33.5712 33.9037 34.2412
34.5734 34.8093 35.0458 35.2829 35.5206 35.9033 36.0025 36.1018 36.2011 36.3004
36.3991 36.7719 37.143 37.5127 37.8811 38.2452 38.6091 38.9721 39.3342 39.6957
40.0563 40.4173 40.779 41.1414 41.5044 41.8679 42.2277 42.5888 42.951 43.3143
43.6779 44.0444 44.4118 44.7804 45.15 45.5197 45.6876 45.8557 46.0241 46.1927
46.5984 46.7557 46.9132 47.071 47.2289 47.3871 47.7651 48.144 48.3249 48.7051
49.2865 49.6719 50.0573 50.443 50.8286 51.2184 51.6064 51.9867 52.3613 52.7348
53.124 53.8077 54.4486 55.0541 55.6283 56.3193 56.3368 56.3543 56.3718 56.3892
56.4067 0 0.0910307 0.182075 0.273133 0.364205 0.455303 0.833509 1.21167 1.59055
1.96985 2.35026 2.73065 3.11165 3.49327 3.87551 4.25891 4.64275 5.02772 5.41371
5.80071 6.18973 6.28759 6.38557 6.48363 6.58179 6.66354 6.96024 7.25779 7.5562
7.85547 8.15695 8.55464 8.95438 9.35618 9.76 10.1697 10.58 10.9927 11.407
11.8214 12.098 12.5394 12.9773 13.4095 13.8355 14.2837 14.3775 14.4708 14.5633
14.6547 14.7324 15.0252 15.3141 15.5986 15.8783 16.1612 16.2494 16.3372 16.4243
16.5108 16.6026 16.8581 17.1081 17.3464 17.5763 17.7924 17.9016 18.0102 18.1182
18.2255 18.3634 18.5371 18.7088 18.8799 19.05 19.2106 19.2789 19.3471 19.4153
19.4835 19.567 19.6294 19.6918 19.7542 19.8165 19.8784 20.0107 20.143 20.2753
20.4077 20.5395 20.6715 20.8039 20.9366 21.0693 21.201 21.2287 21.2564 21.284
21.3117 21.3438 21.4467 21.5492 21.6516 21.7538 21.8554 22.115 22.372 22.6263
22.878 23.1282 23.2561 23.3842 23.5125 23.6408 23.7681 23.8949 24.0219 24.1487
24.2754 24.4018 24.6531 24.9036 25.1533 25.4041 25.6583 25.9139 26.1711 26.4306
26.6927 26.9605 27.0208 27.0813 27.1419 27.2027 27.2605 27.3355 27.4108 27.4862
27.5619 27.6378 27.7778 27.9181 28.0588 28.1999 28.3416 28.6208 28.901 29.1821
29.4635 29.7465 29.9825 30.2198 30.4577 30.6958 30.7745 30.8586 30.9431 31.0279
31.1131 31.1999 31.5047 31.8129 32.1273 32.456 32.8042 32.8289 32.8537 32.8785
32.9033 32.9286 33.2484 33.5744 33.9065 34.2438 34.5756 34.8128 35.0507 35.2892
35.5282 35.9157 36.0129 36.1101 36.2073 36.3046 36.4013 36.7741 37.1452 37.5149
37.8833 38.2474 38.6113 38.9742 39.3363 39.6978 40.0584 40.4194 40.781 41.1434
41.5065 41.8699 42.2297 42.5908 42.953 43.3163 43.6799 44.0463 44.4138 44.7823
45.1519 45.5216 45.7002 45.8791 46.0582 46.2377 46.6887 46.8284 46.9683 47.1083
47.2485 47.3888 47.7668 48.1457 48.251 48.631 49.288 49.6733 50.0588 50.4444
50.83 51.2197 51.6078 51.9882 52.3629 52.7366 53.1259 53.8099 54.4498 55.0544
55.6279 56.3171 56.3346 56.3521 56.3695 56.3869 56.4044 0 0.0910245 0.182063
0.273115 0.364181 0.455272 0.833477 1.21164 1.59052 1.96982 2.35021 2.73061 3.11159
3.4932 3.87544 4.25882 4.64265 5.02761 5.41359 5.80057 6.18958 6.28899 6.38851
6.48812 6.58783 6.67049 6.96579 7.26192 7.55891 7.85674 8.15676 8.55448 8.95422
9.35601 9.75983 10.1695 10.5798 10.9925 11.4067 11.821 12.0955 12.5374 12.9757
13.4084 13.8348 14.2833 14.3771 14.4703 14.5627 14.6542 14.7325 15.0252 15.3141
15.5988 15.8785 16.1614 16.2498 16.3378 16.4251 16.5119 16.6033 16.8587 17.1086
17.3469 17.5769 17.7931 17.9023 18.0111 18.1193 18.2268 18.3645 18.5382 18.7099
18.8809 19.051 19.2116 19.2796 19.3475 19.4155 19.4834 19.5671 19.6297 19.6923
19.7548 19.8173 19.8794 20.0117 20.1439 20.2761 20.4085 20.5402 20.6723 20.8047
20.9373 21.0701 21.2019 21.2287 21.2555 21.2823 21.3091 21.3402 21.444 21.5474
21.6507 21.7537 21.8562 22.1158 22.3729 22.6272 22.8791 23.1293 23.2573 23.3854
23.5137 23.642 23.7694 23.8962 24.0232 24.1501 24.2768 24.4032 24.6546 24.9051
25.1549 25.4058 25.6601 25.9156 26.1728 26.4323 26.6944 26.9621 27.0246 27.0872
27.1499 27.2127 27.2725 27.3455 27.4187 27.4921 27.5657 27.6396 27.7795 27.9199
28.0607 28.2018 28.3435 28.6227 28.9029 29.184 29.4655 29.7484 29.9867 30.2263
30.4665 30.7069 30.7836 30.8663 30.9493 31.0326 31.1163 31.2016 31.5065 31.8151
32.1297 32.4585 32.8068 32.8319 32.8569 32.8821 32.9072 32.9328 33.2523 33.5779
33.9096 34.2465 34.5779 34.8165 35.056 35.2959 35.5365 35.9292 36.0241 36.119
36.2141 36.3091 36.4035 36.7764 37.1474 37.5171 37.8855 38.2496 38.6135 38.9764
39.3385 39.7 40.0605 40.4215 40.7831 41.1455 41.5085 41.8719 42.2317 42.5928
42.955 43.3183 43.6819 44.0483 44.4157 44.7842 45.1538 45.5235 45.7136 45.904
46.0948 46.2859 46.7933 46.9125 47.0318 47.1512 47.2708 47.3905 47.7685 48.1474
48.1755 48.5553 49.2893 49.6746 50.0601 50.4456 50.8313 51.221 51.609 51.9896
52.3645 52.7384 53.1278 53.812 54.4509 55.0547 55.6273 56.3151 56.3325 56.35
56.3674 56.3848 56.4022 0 0.0910184 0.182051 0.273097 0.364156 0.455242 0.833444
1.21162 1.59049 1.96978 2.35017 2.73056 3.11154 3.49314 3.87536 4.25872 4.64255
5.0275 5.41346 5.80043 6.18942 6.29038 6.39145 6.49262 6.59388 6.67747 6.97137
7.26607 7.56162 7.85802 8.15658 8.55433 8.95406 9.35585 9.75966 10.1693 10.5796
10.9922 11.4064 11.8206 12.093 12.5353 12.9741 13.4073 13.8342 14.283 14.3767
14.4698 14.5622 14.6537 14.7326 15.0252 15.3142 15.5989 15.8788 16.1616 16.2501
16.3384 16.426 16.513 16.604 16.8593 17.1091 17.3475 17.5775 17.7937 17.9031
18.0121 18.1205 18.2282 18.3657 18.5393 18.7109 18.8819 19.0519 19.2126 19.2803
19.348 19.4156 19.4833 19.5672 19.63 19.6927 19.7554 19.8181 19.8803 20.0127
20.1448 20.277 20.4093 20.541 20.6731 20.8055 20.9381 21.0709 21.2028 21.2286
21.2545 21.2804 21.3063 21.3363 21.4409 21.5454 21.6496 21.7536 21.857 22.1167
22.3738 22.6282 22.8801 23.1305 23.2585 23.3866 23.5149 23.6433 23.7708 23.8976
24.0246 24.1515 24.2782 24.4047 24.6561 24.9067 25.1566 25.4075 25.6619 25.9174
26.1746 26.4341 26.6961 26.9639 27.0285 27.0932 27.1581 27.2231 27.2849 27.3558
27.4268 27.4981 27.5696 27.6414 27.7813 27.9217 28.0625 28.2037 28.3455 28.6247
28.9049 29.186 29.4675 29.7504 29.9911 30.233 30.4755 30.7182 30.7929 30.8741
30.9556 31.0374 31.1196 31.2033 31.5084 31.8172 32.1321 32.4611 32.8095 32.8349
32.8603 32.8858 32.9114 32.9374 33.2564 33.5815 33.9129 34.2493 34.5802 34.8204
35.0614 35.303 35.5452 35.9433 36.0358 36.1284 36.2211 36.3137 36.4058 36.7786
37.1496 37.5193 37.8877 38.2519 38.6157 38.9786 39.3406 39.7021 40.0626 40.4236
40.7852 41.1475 41.5106 41.8739 42.2337 42.5948 42.957 43.3203 43.6839 44.0503
44.4177 44.7862 45.1557 45.5254 45.7276 45.9301 46.133 46.3363 46.9106 47.0068
47.103 47.1992 47.2956 47.392 47.77 48.0593 48.4389 48.8193 49.2916 49.6769
50.0623 50.4478 50.8333 51.2229 51.6109 51.9917 52.3664 52.7401 53.1291 53.8136
54.4517 55.0548 55.6268 56.3093 56.327 56.3447 56.3624 56.3801 56.3978 0
0.0910122 0.182038 0.273078 0.364132 0.455211 0.833412 1.2116 1.59047 1.96975 2.35012
2.73052 3.11148 3.49307 3.87528 4.25863 4.64245 5.02738 5.41333 5.80029 6.18927
6.29178 6.39439 6.49711 6.59994 6.68449 6.97698 7.27026 7.56437 7.85931 8.15641
8.55419 8.95391 9.3557 9.75951 10.1691 10.5794 10.992 11.4061 11.8203 12.0905
12.5333 12.9726 13.4062 13.8335 14.2827 14.3764 14.4694 14.5618 14.6532 14.7327
15.0252 15.3143 15.5991 15.879 16.1617 16.2505 16.339 16.4269 16.5141 16.6047
16.86 17.1097 17.3481 17.5781 17.7944 17.9039 18.0131 18.1217 18.2295 18.3669
18.5404 18.712 18.8829 19.0529 19.2136 19.2811 19.3485 19.4159 19.4832 19.5672
19.6302 19.6932 19.7561 19.819 19.8814 20.0137 20.1458 20.278 20.4102 20.5419
20.6739 20.8063 20.939 21.0717 21.2037 21.2286 21.2535 21.2784 21.3033 21.332
21.4377 21.5432 21.6485 21.7535 21.858 22.1176 22.3748 22.6293 22.8813 23.1317
23.2597 23.3879 23.5162 23.6446 23.7721 23.899 24.0261 24.153 24.2797 24.4062
24.6577 24.9083 25.1583 25.4093 25.6637 25.9192 26.1764 26.4359 26.6979 26.9656
27.0324 27.0994 27.1664 27.2337 27.2975 27.3663 27.4352 27.5043 27.5736 27.6432
27.7831 27.9236 28.0645 28.2057 28.3475 28.6267 28.9069 29.1881 29.4696 29.7525
29.9955 30.2398 30.4848 30.7299 30.8025 30.8821 30.9621 31.0423 31.1229 31.205
31.5102 31.8194 32.1345 32.4638 32.8122 32.838 32.8639 32.8898 32.9158 32.9422
33.2607 33.5854 33.9163 34.2522 34.5825 34.8243 35.0671 35.3104 35.5543 35.9583
36.0483 36.1383 36.2284 36.3185 36.4081 36.7808 37.1518 37.5216 37.8899 38.2541
38.6179 38.9808 39.3428 39.7043 40.0647 40.4257 40.7873 41.1496 41.5126 41.876
42.2358 42.5968 42.959 43.3223 43.6859 44.0523 44.4197 44.7881 45.1576 45.5272
45.7421 45.9574 46.1731 46.3893 47.043 47.113 47.183 47.2531 47.3233 47.3935
47.7714 47.9303 48.3095 48.6897 49.2927 49.6781 50.0634 50.4489 50.8344 51.224
51.612 51.9929 52.3677 52.7417 53.1308 53.8156 54.4527 55.0548 55.6261 56.3071
56.3248 56.3425 56.3602 56.3778 56.3955 0 0.091006 0.182026 0.27306 0.364107
0.45518 0.833379 1.21158 1.59044 1.96972 2.35008 2.73048 3.11143 3.493 3.8752
4.25853 4.64235 5.02727 5.41321 5.80015 6.18912 6.29317 6.39734 6.50161 6.606
6.69154 6.98261 7.27446 7.56713 7.86061 8.15624 8.55405 8.95377 9.35556 9.75936
10.1689 10.5792 10.9917 11.4058 11.8199 12.0881 12.5313 12.971 13.4051 13.8329
14.2824 14.3761 14.469 14.5613 14.6527 14.7327 15.0252 15.3144 15.5993 15.8793
16.1619 16.2509 16.3396 16.4277 16.5152 16.6054 16.8606 17.1102 17.3486 17.5787
17.7951 17.9047 18.0141 18.1228 18.2309 18.368 18.5415 18.7131 18.8839 19.0539
19.2146 19.2818 19.3489 19.416 19.4831 19.5671 19.6303 19.6935 19.7567 19.8198
19.8824 20.0148 20.1468 20.2789 20.4111 20.5427 20.6748 20.8072 20.9398 21.0726
21.2046 21.2285 21.2524 21.2763 21.3001 21.3275 21.4343 21.5409 21.6473 21.7534
21.8589 22.1185 22.3758 22.6303 22.8824 23.133 23.261 23.3892 23.5175 23.6459
23.7735 23.9004 24.0275 24.1545 24.2813 24.4078 24.6593 24.91 25.16 25.4111
25.6656 25.9211 26.1782 26.4377 26.6997 26.9674 27.0365 27.1056 27.175 27.2445
27.3105 27.377 27.4437 27.5106 27.5777 27.645 27.785 27.9255 28.0664 28.2077
28.3495 28.6288 28.909 29.1901 29.4717 29.7546 30 30.2468 30.4942 30.7417
30.8123 30.8903 30.9687 31.0473 31.1263 31.2068 31.5121 31.8217 32.1369 32.4664
32.8149 32.8412 32.8675 32.8939 32.9203 32.9472 33.2652 33.5894 33.9197 34.2551
34.5848 34.8284 35.0729 35.3181 35.5638 35.9739 36.0611 36.1485 36.2359 36.3233
36.4103 36.783 37.1541 37.5238 37.8922 38.2562 38.6201 38.9829 39.3449 39.7064
40.0668 40.4278 40.7894 41.1516 41.5146 41.878 42.2378 42.5988 42.961 43.3243
43.6879 44.0543 44.4216 44.79 45.1594 45.5291 45.757 45.9855 46.2144 46.4437
47.1913 47.2319 47.2726 47.3133 47.354 47.3947 47.651 47.7381 47.9951 48.2524
49.2923 49.6777 50.063 50.4486 50.8341 51.2238 51.6118 51.9931 52.3685 52.743
53.133 53.8179 54.4538 55.0548 55.625 56.3095 56.3267 56.344 56.3612 56.3783
56.3955 0 0.0909999 0.182014 0.273041 0.364082 0.45515 0.833347 1.21155 1.59041
1.96968 2.35003 2.73043 3.11137 3.49294 3.87513 4.25844 4.64225 5.02716 5.41308
5.80001 6.18896 6.29457 6.40028 6.50611 6.61205 6.6986 6.98825 7.27867 7.56989
7.86193 8.15608 8.55392 8.95363 9.35542 9.75922 10.1688 10.5791 10.9915 11.4055
11.8195 12.0857 12.5294 12.9695 13.404 13.8323 14.2821 14.3757 14.4686 14.5609
14.6523 14.7326 15.025 15.3144 15.5994 15.8795 16.1621 16.2512 16.3402 16.4285
16.5162 16.606 16.8611 17.1107 17.3492 17.5792 17.7958 17.9055 18.0151 18.124
18.2321 18.369 18.5425 18.7141 18.8849 19.0549 19.2156 19.2825 19.3493 19.4161
19.483 19.5669 19.6304 19.6938 19.7572 19.8206 19.8835 20.0158 20.1478 20.2799
20.412 20.5436 20.6756 20.808 20.9407 21.0734 21.2055 21.2283 21.2511 21.2738
21.2966 21.3225 21.4305 21.5383 21.6459 21.7532 21.8598 22.1194 22.3768 22.6314
22.8835 23.1342 23.2622 23.3905 23.5188 23.6473 23.7749 23.9019 24.029 24.156
24.2828 24.4093 24.6609 24.9117 25.1618 25.4129 25.6675 25.923 26.1801 26.4396
26.7015 26.9693 27.0406 27.1121 27.1838 27.2557 27.3238 27.3881 27.4525 27.5171
27.5819 27.6469 27.7868 27.9274 28.0684 28.2097 28.3516 28.6308 28.9111 29.1922
29.4738 29.7567 30.0047 30.2539 30.5039 30.754 30.8223 30.8987 30.9755 31.0525
31.1298 31.2085 31.5141 31.8239 32.1394 32.4691 32.8176 32.8444 32.8713 32.8982
32.9251 32.9526 33.27 33.5936 33.9233 34.2581 34.5871 34.8325 35.079 35.3261
35.5737 35.9902 36.0747 36.1592 36.2437 36.3284 36.4125 36.7852 37.1562 37.526
37.8943 38.2584 38.6222 38.9851 39.3471 39.7085 40.0689 40.4298 40.7914 41.1537
41.5166 41.8799 42.2397 42.6008 42.9629 43.3262 43.6898 44.0562 44.4235 44.7919
45.1613 45.5309 45.7725 46.0146 46.2572 46.5003 47.3587 47.3661 47.3735 47.3809
47.3882 47.3956 47.4219 47.4482 47.4639 47.4902 49.2865 49.672 50.0577 50.4435
50.8293 51.2193 51.6077 51.9894 52.3674 52.7439 53.1375 53.822 54.456 55.055
55.6232 56.329 56.3442 56.3594 56.3746 56.3898 56.405 0 0.0909937 0.182001
0.273023 0.364058 0.455122 0.833318 1.21154 1.59039 1.96965 2.34999 2.73039 3.11132
3.49288 3.87505 4.25835 4.64215 5.02705 5.41296 5.79987 6.18881 6.29594 6.40319
6.51055 6.61803 6.70557 6.99382 7.28283 7.57262 7.86322 8.15592 8.55379 8.9535
9.35528 9.75908 10.1686 10.5789 10.9913 11.4052 11.8192 12.0833 12.5274 12.968
13.403 13.8316 14.2818 14.3754 14.4682 14.5605 14.6519 14.7325 15.0248 15.3143
15.5995 15.8798 16.1623 16.2516 16.3407 16.4292 16.5171 16.6067 16.8617 17.1112
17.3497 17.5797 17.7963 17.9062 18.016 18.1251 18.2335 18.3702 18.5436 18.7151
18.8858 19.0558 19.2165 19.2832 19.3498 19.4163 19.4829 19.5667 19.6304 19.6941
19.7577 19.8213 19.8844 20.0168 20.1487 20.2807 20.4128 20.5443 20.6763 20.8087
20.9414 21.0741 21.2063 21.2282 21.25 21.2718 21.2937 21.3184 21.4274 21.5362
21.6447 21.753 21.8606 22.1202 22.3777 22.6324 22.8846 23.1353 23.2634 23.3916
23.52 23.6485 23.7762 23.9032 24.0304 24.1574 24.2842 24.4108 24.6624 24.9132
25.1634 25.4145 25.6693 25.9247 26.1818 26.4413 26.7032 26.9709 27.0445 27.1182
27.1921 27.2662 27.3363 27.3984 27.4607 27.5232 27.5858 27.6486 27.7886 27.9292
28.0702 28.2115 28.3535 28.6327 28.913 29.1942 29.4758 29.7587 30.009 30.2607
30.513 30.7655 30.8317 30.9066 30.9818 31.0572 31.133 31.2101 31.5158 31.8259
32.1417 32.4715 32.8201 32.8473 32.8746 32.902 32.9293 32.9573 33.2742 33.5973
33.9265 34.2608 34.5892 34.8363 35.0845 35.3333 35.5827 36.0052 36.087 36.169
36.2509 36.333 36.4146 36.7873 37.1583 37.528 37.8964 38.2604 38.6242 38.987
39.349 39.7104 40.0708 40.4317 40.7933 41.1555 41.5185 41.8818 42.2416 42.6026
42.9647 43.328 43.6916 44.058 44.4253 44.7936 45.163 45.5326 45.7864 46.0407
46.2957 46.5512 47.5455 47.5455 47.5455 47.5455 47.5455 47.5455 47.8939 48.2432
48.5931 48.9438 49.296 49.6813 50.0665 50.4519 50.8373 51.2268 51.6147 51.9962
52.3712 52.7454 53.1345 53.8201 54.4544 55.0541 55.6232 56.2969 56.3147 56.3325
56.3503 56.3681 56.3859 0 0.0909876 0.181989 0.273004 0.364033 0.455095 0.833288
1.21152 1.59036 1.96962 2.34995 2.73035 3.11127 3.49281 3.87498 4.25825 4.64205
5.02694 5.41283 5.79974 6.18866 6.29732 6.4061 6.515 6.62402 6.71254 6.99938
7.28699 7.57536 7.86452 8.15577 8.55366 8.95337 9.35514 9.75893 10.1684 10.5787
10.991 11.4049 11.8188 12.0809 12.5254 12.9665 13.4019 13.831 14.2816 14.3751
14.4679 14.5601 14.6515 14.7323 15.0246 15.3143 15.5996 15.88 16.1626 16.2519
16.3412 16.4299 16.518 16.6075 16.8624 17.1117 17.3502 17.5802 17.7968 17.9069
18.0169 18.1262 18.2348 18.3714 18.5447 18.7161 18.8868 19.0566 19.2174 19.2838
19.3502 19.4165 19.4829 19.5665 19.6305 19.6944 19.7582 19.822 19.8853 20.0177
20.1496 20.2815 20.4136 20.5451 20.6771 20.8095 20.9421 21.0749 21.2071 21.2281
21.2491 21.2702 21.2912 21.3148 21.4247 21.5344 21.6438 21.7529 21.8614 22.121
22.3785 22.6333 22.8856 23.1364 23.2645 23.3928 23.5212 23.6497 23.7775 23.9045
24.0317 24.1587 24.2856 24.4121 24.6638 24.9148 25.1649 25.4162 25.671 25.9264
26.1835 26.4429 26.7049 26.9726 27.0482 27.124 27.2 27.2763 27.3484 27.4085
27.4687 27.5291 27.5896 27.6503 27.7902 27.9309 28.072 28.2134 28.3553 28.6346
28.9149 29.1961 29.4777 29.7606 30.0133 30.2673 30.522 30.7769 30.8412 30.9145
30.9881 31.062 31.1362 31.2117 31.5175 31.828 32.144 32.474 32.8227 32.8503
32.8781 32.9058 32.9337 32.962 33.2784 33.601 33.9298 34.2635 34.5913 34.8402
35.0901 35.3407 35.5918 36.0205 36.0997 36.179 36.2583 36.3377 36.4166 36.7893
37.1603 37.53 37.8984 38.2625 38.6263 38.989 39.351 39.7124 40.0727 40.4337
40.7952 41.1574 41.5203 41.8836 42.2434 42.6044 42.9666 43.3298 43.6934 44.0598
44.4271 44.7953 45.1647 45.5343 45.8005 46.0674 46.335 46.6031 47.7653 47.7653
47.7653 47.7653 47.7653 47.7653 48.0703 48.3758 48.682 48.9886 49.2965 49.6819
50.067 50.4524 50.8378 51.2273 51.6152 51.9969 52.3721 52.7464 53.1357 53.8215
54.4548 55.0536 55.6219 56.2942 56.312 56.3298 56.3476 56.3653 56.383 0
0.0909814 0.181977 0.272986 0.364008 0.455067 0.833259 1.2115 1.59034 1.96959 2.3499
2.73031 3.11122 3.49275 3.8749 4.25816 4.64195 5.02682 5.41271 5.7996 6.18851
6.2987 6.40901 6.51945 6.63 6.7195 7.00495 7.29115 7.57809 7.86582 8.15562
8.55354 8.95324 9.35501 9.7588 10.1683 10.5785 10.9908 11.4046 11.8185 12.0786
12.5235 12.965 13.4009 13.8304 14.2813 14.3747 14.4675 14.5597 14.6511 14.7321
15.0244 15.3142 15.5997 15.8802 16.1628 16.2523 16.3417 16.4306 16.5189 16.6083