# vtk DataFile Version 2.0
sampleSurface
ASCII
DATASET POLYDATA
POINTS 3098 float
0.746192 0 -5.00894e-05 -6.50534 1.11022e-16 -4.7391e-05 0.739507 0 7.49995 7.99812 0
1.94289e-05 -6.5124 -1.11022e-16 7.49992 7.99235 -1.11022e-16 7.50019 -13.7546 0 -1.50031e-05
0.734852 -1.11022e-16 14.9998 15.2496 -1.11022e-16 6.60617e-05 -13.7602 0 7.49982 -6.51784
-1.11022e-16 14.9998 15.2414 -1.11022e-16 7.50009 7.98685 0 14.9998 -13.7648 0
14.9999 -20.9938 0 4.36099e-06 15.2348 -1.11022e-16 14.9998 -20.9936 2.22045e-16 7.49977
22.5022 0 1.49541e-05 0.735071 0 22.4998 -6.51815 -1.11022e-16 22.4999 22.4915
0 7.49989 7.98745 -1.11022e-16 22.4998 -20.9933 -1.11022e-16 14.9999 -13.7652 1.11022e-16
22.4999 22.4829 -1.11022e-16 14.9998 15.2356 0 22.4998 -28.2515 0 2.62893e-05
-28.2534 0 7.50012 29.7556 -1.11022e-16 -4.54549e-05 0.735819 1.11022e-16 29.9999 29.7426
0 7.4992 -6.51767 0 29.9999 -20.9933 -1.11022e-16 22.5 7.98856 0
29.9999 22.4839 1.11022e-16 22.4999 -28.255 0 15 -13.7649 0 30
29.7256 0 14.9997 15.237 0 29.9999 -35.5072 -1.11022e-16 5.90779e-05 -28.2551
0 22.5 -35.5123 1.11022e-16 7.50007 -20.993 1.11022e-16 30 36.9932 0
-7.53554e-05 29.7252 1.11022e-16 22.4999 22.4857 -1.11022e-16 29.9999 0.736256 -1.11022e-16 37.5
37.0663 -1.11022e-16 7.5 -6.5174 0 37.5 7.98913 1.11022e-16 37.5 -35.5169
-2.22045e-16 15 36.9578 0 14.9999 -13.7648 0 37.5 15.2378 0
37.5 -28.255 0 30 -35.5174 0 22.5 29.7273 -1.11022e-16 30
-42.7594 0 0.000106246 -20.9929 1.11022e-16 37.5 36.9398 -3.33067e-16 22.4999 -42.765
0 7.50013 22.4866 -1.11022e-16 37.5 44.3067 1.11022e-16 -0.000173064 44.3156 -5.55112e-17
3.74923 44.3638 -1.11022e-16 7.50044 0.736588 -1.11022e-16 45 -42.7692 2.22045e-16 15.0001
-6.51713 0 45 7.98959 0 45 -35.5174 0 30 44.2537
1.11022e-16 14.9995 -28.2549 0 37.5 -13.7646 -2.22045e-16 45 15.2384 1.11022e-16
45 36.9405 0 30 29.7284 0 37.5 47.8983 5.55112e-17 -0.000231375
47.9106 0 3.74943 -42.7696 1.11022e-16 22.5 48.0131 0 7.50081 44.229
-2.22045e-16 22.4999 -20.9927 -1.11022e-16 45 -50 -1.11022e-16 0.000116555 22.4873 -1.11022e-16
45 -50 -1.11022e-16 7.50012 51.4805 0 -0.000354952 -35.5173 1.11022e-16 37.5
51.6484 5.55112e-17 3.75115 -50 -2.22045e-16 15.0001 51.6711 0 7.50084 -42.7696
0 30 0.736735 -1.11022e-16 52.5 36.9419 0 37.5 51.4953 -1.11022e-16
11.2492 -6.51706 0 52.5 7.98975 0 52.5 -28.2549 0 45
44.2289 -1.11022e-16 30 51.37 -5.55112e-17 14.9994 29.729 -1.11022e-16 45 -13.7646
0 52.5 51.3052 -2.1684e-19 18.7496 51.3048 -2.60209e-18 18.8318 15.2386 -2.22045e-16
52.5 51.3708 -2.38524e-18 18.7496 -50 1.11022e-16 22.5 54.9985 0 -0.00260162
55.0346 0 1.87535 55.1369 0 3.75138 55.3085 5.55112e-17 7.50038 51.2883
-5.55112e-17 22.4998 55.0461 -5.55112e-17 11.249 -20.9927 0 52.5 56.7456 0
0.0299735 56.7783 -2.77556e-17 1.87544 -42.7696 0 37.5 54.8698 0 14.9993
56.8619 2.77556e-17 3.75216 22.4876 1.11022e-16 52.5 -35.5173 -1.11022e-16 45 54.8229
0 17.1162 51.2808 6.93889e-18 26.2499 55.7413 -6.93889e-18 14.9994 54.8037 0
18.7496 44.2298 -1.11022e-16 37.5 36.9422 -2.22045e-16 45 -50 0 30
58.4645 0 -0.244693 58.5154 0 1.88535 58.9168 0 -0.257294 58.9375
1.38778e-17 1.84572 58.8346 1.38778e-17 4.04008 59.1468 -3.46945e-18 1.82581 59.2027 0
-0.270676 59.0815 0 3.9148 54.7907 0 22.4998 59.2532 0 -0.267831
59.2573 0 1.824 58.2324 -1.38778e-17 11.2624 59.254 0 3.02719 58.004
1.38778e-17 12.6256 59.2576 -3.46945e-18 3.82483 51.283 -6.245e-17 30 57.6498 2.77556e-17
14.9995 -28.2548 1.11022e-16 52.5 59.2774 -2.77556e-17 7.62697 58.8187 2.77556e-17 11.263
58.0011 -1.38778e-17 14.9995 0.736891 0 60 58.3071 0 14.9994 29.7293
1.11022e-16 52.5 59.2786 -2.77556e-17 11.2636 -6.5169 0 60 57.4289 2.77556e-17
18.7498 7.98997 -1.11022e-16 60 58.8533 5.55112e-17 14.9994 54.7868 1.249e-16 26.2499
58.0003 -1.38778e-17 18.7498 58.1668 0 18.7498 59.2769 -2.77556e-17 14.9994 51.2799
6.93889e-18 33.75 -13.7644 0 60 57.3667 0 22.4999 58.7945 0
18.7497 15.2389 1.11022e-16 60 -42.7696 -1.11022e-16 45 59.2786 -2.77556e-17 18.7497
57.9997 2.77556e-17 22.4999 58.1285 -6.245e-17 22.4999 54.7871 0 30 -50
0 37.5 58.7775 2.77556e-17 22.4999 57.3544 0 26.25 44.2301 -1.11022e-16
45 -35.5173 -2.22045e-16 52.5 59.2769 0 22.4998 51.283 -6.93889e-18 37.5
-20.9926 1.11022e-16 60 58.0001 0 26.25 58.1216 0 26.25 22.4878
1.11022e-16 60 36.9426 0 52.5 54.7861 -8.32667e-17 33.75 58.7756 0
26.25 57.3526 -1.66533e-16 30 59.2786 0 26.25 57.9997 -2.08167e-17 30
58.1203 2.08167e-17 30 51.28 0 41.25 58.7742 -5.55112e-17 30 -28.2547
0 60 54.7871 0 37.5 59.2769 0 30 57.3525 0
33.75 29.7295 0 60 58.0002 0 33.75 58.1205 -6.93889e-18 33.75
-50 0 45 0.736925 0 67.5 -42.7695 0 52.5 58.7752
-2.77556e-17 33.75 -6.5169 3.33067e-16 67.5 7.98998 -1.11022e-16 67.5 59.2786 2.77556e-17
33.75 51.2831 -3.46945e-17 45 57.3524 5.55112e-17 37.5 54.7862 1.38778e-17 41.25
44.2303 1.11022e-16 52.5 -13.7644 0 67.5 57.9998 0 37.5 58.1202
4.16334e-17 37.5 15.2389 -1.11022e-16 67.5 58.7741 0 37.5 -35.5171 1.11022e-16
60 59.2769 0 37.5 36.9425 0 60 57.3524 -5.55112e-17 41.25
-20.9926 -1.11022e-16 67.5 51.2801 -6.93889e-18 48.75 54.787 0 45 22.4878
2.22045e-16 67.5 58.0002 6.93889e-18 41.25 58.1204 0 41.25 58.7752 -2.77556e-17
41.25 59.2786 -2.77556e-17 41.25 -50 0 52.5 57.3524 0 45
-28.2547 1.11022e-16 67.5 54.7862 -2.77556e-17 48.75 51.2831 -6.245e-17 52.5 57.9998
6.93889e-18 45 58.1202 -6.93889e-18 45 -42.7695 -1.11022e-16 60 29.7296 0
67.5 58.7741 2.77556e-17 45 59.2769 0 45 44.2304 -2.22045e-16 60
0.737014 0 75 57.3524 0 48.75 -6.51679 -1.11022e-16 75 7.99012
-2.22045e-16 75 58.0002 -6.93889e-18 48.75 58.1204 0 48.75 54.787 -1.38778e-17
52.5 51.2801 0 56.25 -13.7644 0 75 -35.5171 -1.11022e-16 67.5
58.7752 2.77556e-17 48.75 15.239 0 75 59.2786 2.77556e-17 48.75 36.9428
2.22045e-16 67.5 57.3524 0 52.5 -20.9926 1.11022e-16 75 -50 -1.11022e-16
60 57.9998 6.93889e-18 52.5 22.4879 0 75 58.1202 -6.93889e-18 52.5
54.7862 -1.38778e-17 56.25 58.7741 2.77556e-17 52.5 51.2831 -1.38778e-17 60 59.2769
-2.77556e-17 52.5 -42.7695 0 67.5 -28.2547 1.11022e-16 75 57.3524 0
56.25 29.7296 0 75 44.2304 -1.11022e-16 67.5 58.0002 2.08167e-17 56.25
58.1204 6.93889e-18 56.25 54.7871 0 60 58.7752 2.77556e-17 56.25 59.2786
2.77556e-17 56.25 51.2801 0 63.75 0.737004 -1.11022e-16 82.5 -6.51683 0
82.5 7.99007 1.11022e-16 82.5 -35.5171 0 75 57.3524 0 60
57.9998 1.38778e-17 60 58.1202 4.85723e-17 60 36.9426 1.11022e-16 75 -13.7644
1.11022e-16 82.5 15.239 -2.22045e-16 82.5 58.7741 2.77556e-17 60 -50 2.22045e-16
67.5 54.7862 -2.77556e-17 63.75 59.2769 -2.77556e-17 60 51.2831 -6.245e-17 67.5
-20.9926 -1.11022e-16 82.5 22.4879 1.11022e-16 82.5 57.3524 0 63.75 58.0002
6.93889e-18 63.75 58.1204 6.93889e-18 63.75 -42.7695 0 75 58.7752 -2.77556e-17
63.75 54.787 0 67.5 59.2786 2.77556e-17 63.75 44.2304 0 75
-28.2547 -1.11022e-16 82.5 29.7297 0 82.5 51.2801 0 71.25 57.3524
0 67.5 57.9998 1.38778e-17 67.5 58.1202 4.85723e-17 67.5 58.7741 2.77556e-17
67.5 -35.5171 0 82.5 59.2769 -2.77556e-17 67.5 54.7862 -6.93889e-17 71.25
0.737067 -1.11022e-16 90 -50 -1.11022e-16 75 -6.51675 -1.11022e-16 90 7.99018
1.11022e-16 90 36.9429 2.22045e-16 82.5 51.2831 1.17961e-16 75 -13.7643 0
90 15.239 -1.11022e-16 90 57.3524 0 71.25 58.0002 6.93889e-18 71.25
58.1204 6.93889e-18 71.25 58.7752 -2.77556e-17 71.25 -20.9925 1.11022e-16 90 59.2786
2.77556e-17 71.25 22.488 1.11022e-16 90 54.7871 0 75 -42.7695 0
82.5 44.2305 0 82.5 51.2801 -6.93889e-18 78.75 -28.2547 -2.22045e-16 90
57.3524 0 75 29.7297 -1.11022e-16 90 57.9998 1.38778e-17 75 58.1202
4.85723e-17 75 58.7741 2.77556e-17 75 59.2769 -2.77556e-17 75 54.7862 0
78.75 -50 0 82.5 -35.5171 1.11022e-16 90 51.2831 -1.80411e-16 82.5
36.9427 1.11022e-16 90 57.3524 0 78.75 0.737038 0 97.5 -6.5168
0 97.5 58.0002 6.93889e-18 78.75 7.9901 -1.11022e-16 97.5 58.1204 6.93889e-18
78.75 58.7752 -2.77556e-17 78.75 -13.7644 2.22045e-16 97.5 59.2786 2.77556e-17 78.75
15.239 0 97.5 54.787 -1.38778e-17 82.5 -42.7695 -1.11022e-16 90 -20.9926
-1.11022e-16 97.5 22.4879 0 97.5 44.2304 1.11022e-16 90 51.2801 0
86.25 57.3524 0 82.5 57.9998 -6.93889e-18 82.5 58.1202 4.85723e-17 82.5
58.7741 2.77556e-17 82.5 -28.2547 0 97.5 59.2769 -2.77556e-17 82.5 29.7297
1.11022e-16 97.5 54.7862 1.38778e-17 86.25 -50 0 90 57.3524 0
86.25 51.2831 -6.93889e-18 90 -35.5171 -1.11022e-16 97.5 58.0002 1.38778e-17 86.25
58.1204 6.93889e-18 86.25 36.9429 2.22045e-16 97.5 58.7752 -2.77556e-17 86.25 59.2786
2.77556e-17 86.25 0.73709 -1.11022e-16 105 -6.51673 0 105 7.9902 -1.11022e-16
105 54.7871 0 90 -13.7643 0 105 15.239 1.11022e-16 105
-42.7695 -1.11022e-16 97.5 57.3524 0 90 51.2801 0 93.75 44.2305
1.11022e-16 97.5 57.9998 1.38778e-17 90 -20.9925 2.22045e-16 105 58.1202 4.85723e-17
90 22.4881 0 105 58.7741 2.77556e-17 90 59.2769 -2.77556e-17 90
54.7862 0 93.75 -28.2547 0 105 29.7297 0 105 -50
-1.11022e-16 97.5 57.3524 0 93.75 51.2831 -1.04083e-16 97.5 58.0002 6.93889e-18
93.75 58.1204 6.93889e-18 93.75 58.7752 -2.77556e-17 93.75 -35.5171 0 105
59.2786 2.77556e-17 93.75 36.9427 -1.11022e-16 105 54.787 1.38778e-17 97.5 0.737054
-1.11022e-16 112.5 -6.51679 2.22045e-16 112.5 7.99012 -1.11022e-16 112.5 57.3524 0
97.5 -13.7644 0 112.5 -42.7695 0 105 57.9998 1.38778e-17 97.5
51.2801 -6.93889e-18 101.25 58.1202 4.85723e-17 97.5 15.239 -1.11022e-16 112.5 58.7741
2.77556e-17 97.5 44.2305 1.11022e-16 105 59.2769 -2.77556e-17 97.5 -20.9926 1.11022e-16
112.5 22.4879 -1.11022e-16 112.5 54.7862 0 101.25 -28.2547 0 112.5
-50 2.22045e-16 105 29.7297 0 112.5 57.3524 0 101.25 58.0002
1.38778e-17 101.25 58.1204 6.93889e-18 101.25 51.2831 2.08167e-17 105 58.7752 -2.77556e-17
101.25 59.2786 2.77556e-17 101.25 -35.5171 -2.22045e-16 112.5 36.9429 1.11022e-16 112.5
54.7871 0 105 57.3524 0 105 57.9998 1.38778e-17 105 0.737101
-1.11022e-16 120 58.1202 4.85723e-17 105 -6.51672 0 120 51.2801 6.93889e-18
108.75 7.99022 -1.11022e-16 120 58.7741 2.77556e-17 105 -42.7695 0 112.5
59.2769 -2.77556e-17 105 -13.7643 -1.11022e-16 120 44.2305 0 112.5 15.239
-1.11022e-16 120 54.7862 -2.77556e-17 108.75 -20.9925 0 120 22.4881 0
120 57.3524 0 108.75 -50 0 112.5 58.0002 6.93889e-18 108.75
[...]
POINT_DATA 3098
FIELD attributes 2
p 1 3098 float
0.0561846 0.043115 0.473356 0.0673325 0.47336 0.444109 0.0135735 0.269558 0.093381 0.490758 0.266011
0.466312 0.29032 0.282703 -0.0256767 0.302065 0.501687 0.142016 0.0809201 0.071083 0.523377
0.0860046 0.293436 0.0582669 0.317435 0.0920644 -0.0479694 0.491421 0.282732 0.0410112 0.628101
0.0393076 0.0554408 0.0376056 0.0867802 0.296555 0.0334871 0.415542 0.0356684 -0.0474791 0.0612252
0.452888 0.0335499 0.406246 0.0296594 0.0298925 0.0304137 0.655029 0.0321305 0.0258587 0.283166
0.594245 0.0320476 0.020442 0.038036 0.070991 -0.00572928 -0.00848022 0.0346151 -0.0205385 0.370682
0.0138396 0.852001 0.220282 0.569021 0.021842 0.258264 0.0239968 0.0170273 0.0465376 0.687114
0.0386949 0.0247538 0.0106896 -0.0377648 -0.00127856 1.17445 0.196011 0.0882769 0.378047 -0.0735413
0.0272669 0.021391 0.00177928 0.320858 1.27774 0.0457384 0.0395789 0.246753 0.85767 0.0592819
0.0216126 -0.0147596 1.77862 0.0244244 0.0166783 0.0310959 -0.0637075 0.694624 -0.0113281 0.0257806
-0.131611 -0.133744 0.0112419 -0.130527 0.0997375 1.02195 -0.185725 -0.436097 0.965401 -0.22705
2.09866 0.0278816 1.0395 -0.285367 0.0552161 0.788179 -1.03075 0.00314398 0.0382336 0.300379
-0.17513 0.812247 -0.0726111 -0.025549 -0.0238085 0.0663686 1.7129 -0.386741 2.07547 -0.128579
-1.41635 -0.143436 2.18838 -1.47422 -0.232416 2.19399 -0.167128 2.35554 -1.03507 1.84532
-1.56023 -0.107193 0.861842 0.0312627 1.35394 2.02873 0.745529 0.0245643 0.623941 -0.00800109
2.12808 0.0276157 -0.0112053 0.0202776 0.810883 -0.163571 0.00163174 0.00280621 0.799411 -0.0580524
0.0297143 -0.201787 -0.00679236 0.0164691 0.0476449 -0.0192491 -0.190395 -0.185896 -0.106172 0.0596298
-0.180387 -0.146406 -0.0331396 0.0377006 -0.177025 -0.0498447 0.0318161 -0.140223 -0.137003 0.0110437
-0.0189039 -0.0615628 -0.128083 -0.101804 -0.12176 -0.102349 -0.100703 -0.0551236 -0.0951785 0.0349257
-0.0485984 -0.0902579 -0.0647876 0.00485843 -0.0725267 -0.0731333 0.0517011 0.0276364 0.0461811 -0.0754609
0.030582 0.0242187 -0.0748763 -0.0535943 -0.0486781 -0.0508991 -0.0251168 0.0330526 -0.0559469 -0.057128
0.0220654 -0.0623749 0.0407126 -0.063853 -0.000840467 -0.0479878 0.035259 -0.0483088 -0.048156 0.019302
-0.0538502 -0.0549942 -0.0611544 -0.0635494 0.0499488 -0.0424895 0.0383737 -0.0399376 -0.0333988 -0.0471278
-0.0482564 0.0482213 0.017799 -0.0549458 -0.0580017 -0.00227102 0.0301958 -0.0337142 0.0329966 0.0274396
-0.0375426 -0.0385812 -0.0246398 -0.0174712 0.0355951 0.0438436 -0.0450716 0.0264353 -0.048411 0.0179025
-0.0173239 0.0377929 0.0515906 -0.0200616 0.0253951 -0.0209176 -0.00620371 -0.0264993 -8.49905e-05 -0.0294406
0.0507528 0.0409268 0.00147536 0.0267094 0.0211514 -0.00082864 -0.00160715 0.0115377 -0.00626733 -0.00874835
0.0152152 0.0327888 0.0353479 0.0305644 0.0462578 0.0191594 0.0168776 0.0160794 0.0307718 0.0379077
0.0303438 0.011895 0.0538562 0.0273527 0.00946108 0.0279422 0.0400113 0.0304136 0.0343642 0.0317638
0.0309083 0.0527928 0.0272371 0.0403509 0.0250224 0.0371599 0.0430889 0.0330571 0.0378445 0.0471944
0.0445878 0.0436981 0.0404945 0.0483319 0.0384082 0.0502418 0.036023 0.0557298 0.038474 0.0340509
0.0392795 0.045316 0.0409013 0.0342965 0.056354 0.0532463 0.0522855 0.0494878 0.0428131 0.047633
0.0350003 0.0577323 0.0546104 0.047388 0.0508662 0.0457431 0.0635235 0.0382726 0.0601692 0.0591347
0.0565168 0.0546748 0.063181 0.0574028 0.0507424 0.0555142 0.0453767 0.0683406 0.0397383 0.0420151
0.0645929 0.0379868 0.0635164 0.0612368 0.0443105 0.0596052 0.0384558 0.0677008 0.0566675 0.0460292
0.0394241 0.0541733 0.0587281 0.0726231 0.0687148 0.0675848 0.0654169 0.0487759 0.0637985 0.0427628
0.0709901 0.0592984 0.0755259 0.0618828 0.0534959 0.0713527 0.0702109 0.0500126 0.068362 0.066962
0.0433569 0.0455124 0.0418149 0.0738226 0.0477387 0.0425102 0.0591114 0.0781249 0.064062 0.0591971
0.0738306 0.0493055 0.0726455 0.0436602 0.0708481 0.0694329 0.0760415 0.0518882 0.0470222 0.0616308
0.0799586 0.0666877 0.0754427 0.0742551 0.0727039 0.0563811 0.0714522 0.0540041 0.0784119 0.0468091
0.0487873 0.0455073 0.0822582 0.0509952 0.0617583 0.0777076 0.0686985 0.0764873 0.0463116 0.0749356
0.0632632 0.0736468 0.0524788 0.0475512 0.0806644 0.0549302 0.0641973 0.0511079 0.0842847 0.0796205
0.0784115 0.0712519 0.0770717 0.0759313 0.0592621 0.0578758 0.0830005 0.0866102 0.0819752 0.050169
0.0807371 0.0520033 0.0732253 0.0489189 0.0793345 0.0644754 0.078114 0.0540982 0.0669592 0.049707
0.0851419 0.0554623 0.0509996 0.0885178 0.0668761 0.0837994 0.0578104 0.0825801 0.0813648 0.0547336
0.0757765 0.0802794 0.0875096 0.062007 0.0615552 0.0909055 0.0862595 0.0850231 0.0837568 0.0776006
0.0826069 0.0670944 0.0532173 0.0549115 0.052004 0.070613 0.056853 0.0528225 0.0896118 0.0581609
0.054188 0.0929884 0.0883774 0.0871775 0.0694733 0.0861079 0.0850957 0.0795663 0.0604855 0.0579613
0.0912643 0.0645828 0.0648416 0.094689 0.0901587 0.0889501 0.0878334 0.0867575 0.0809049 0.0695782
0.0739891 0.0559761 0.057553 0.0548531 0.0926914 0.0594726 0.0557279 0.0960391 0.0607784 0.0915123
0.0903402 0.0571435 0.0719445 0.0894063 0.0884585 0.0827064 0.0630305 0.0609353 0.0943385 0.0669871
0.0979002 0.0677719 0.0935206 0.0923404 0.0913224 0.0902915 0.0840717 0.071881 0.0769217 0.0958983
0.0586083 0.0601625 0.0574874 0.0620108 0.0994599 0.0584183 0.0951535 0.0940293 0.093249 0.0742405
0.0923882 0.0631654 0.0598875 0.0858774 0.0652757 0.0637572 0.0975401 0.101279 0.0691737 0.0971122
0.0959804 0.0707308 0.095098 0.0941379 -0.0731832 -0.144892 0.0872083 -0.0395808 0.0290798 -0.0655522
0.0163694 -0.125675 0.0740415 -0.0392301 0.0275036 0.00073246 0.0990902 0.0798626 0.0193772 -0.0314345
-0.0557164 -0.0995616 -0.0552688 -0.0982315 -0.0389775 0.00193528 -0.0389613 0.0610404 0.0248329 0.0247465
0.102788 0.062486 -0.0564905 0.0599879 -0.0257617 0.0230127 0.0986555 0.02314 0.0975625 0.0642308
0.096859 0.0609674 0.00275509 0.00277882 -0.0724166 0.0960243 -0.0491742 0.0764046 -0.043525 -0.0692129
-0.0188143 -0.0186447 -0.0303612 0.0890377 0.0652885 -0.0651563 0.017764 -0.0823959 0.0624774 -0.0398136
-0.0395837 0.0212682 0.0064904 -0.0753246 -0.0364261 -0.0496975 -0.0893752 -0.0558424 -0.0556128 0.0673476
-0.025441 0.100713 0.0104037 -0.00977354 0.0663538 0.0177229 -0.0822868 -0.0663002 -0.0660782 -0.092199
-0.027208 0.104537 0.00819357 0.10051 0.0994068 -0.00466799 0.0985824 0.0712228 -0.0414302 -0.0852634
-0.07327 -0.0730492 0.0976497 -0.0288809 -0.0362202 0.0733571 -0.0186787 -0.0916719 -0.0199067 0.00851519
-0.0511517 0.0903372 0.0167842 -0.0764632 -0.0762483 -0.0850546 -0.0327136 0.0107508 -0.0895967 -0.0576719
0.000353648 0.0760715 -0.0420236 0.102266 -0.0766892 -0.0764855 0.0825929 -0.0832341 -0.0125629 -0.0609554
-0.0204321 -0.0215031 -0.08704 -0.0112072 -0.048021 0.106163 0.00658494 -0.0239396 0.102231 -0.0752079
0.101179 -0.0750126 0.0155694 0.0632847 0.100551 -0.0808591 0.0646844 0.0622908 -0.0617918 0.0997568
0.0133895 -0.0514992 -0.0323421 0.0664154 0.0784394 -0.0844419 0.0632978 0.00582723 0.0919863 -0.0730758
-0.0728865 -0.0380856 0.0674119 -0.0783965 -0.0609111 -0.00447383 -0.052578 0.0648519 -0.0821003 -0.014083
0.10371 -0.0413698 -0.0707942 -0.0706095 0.0694064 -0.0522643 -0.0593107 -0.0161324 -0.0761489 0.0687927
-0.0146626 -0.02158 -0.00873129 0.107714 0.00107238 -0.0428317 0.103858 0.102791 0.00791313 -0.079906
0.102056 -0.0268714 -0.0686728 -0.0684914 -0.050901 0.101165 0.00840069 -0.057463 0.0732156 -0.0740153
0.075855 0.00444182 -0.0427564 0.0931924 -0.0301008 -0.0023971 -0.0494811 -0.0777238 -0.0666193 -0.0664399
-0.0556744 -0.0418903 -0.00940213 -0.0318192 0.0780113 0.105138 -0.0718777 0.0851571 -0.0153689 -0.0478102
-0.0111486 -0.00965401 -0.00595866 0.109135 -0.0758533 -0.0538761 -0.0645364 -0.0643583 -0.0321647 -0.040661
-8.44543e-05 0.105287 0.10425 0.00484434 -0.0199349 0.103652 0.102863 -0.0700297 0.00638794 0.0653611
0.0667079 0.0644025 0.0803674 -0.046312 -0.0317163 0.00468349 -0.0230623 0.0684141 -0.0393516 -0.0519922
0.0948044 0.0654259 -0.0627145 -0.062537 -0.074547 0.00015722 0.0693571 -0.0249897 -0.0687261 0.0670334
-0.0308385 -0.00489188 -0.0444604 0.106712 -0.0379524 -0.050322 -0.00956777 -0.061414 -0.0612367 0.0712863
-0.0734933 -0.0258231 -0.0145355 -0.0136213 0.11093 0.0710458 -0.0114103 0.107196 -0.0298146 0.106144
-0.00793245 0.105416 -0.0135175 -0.0676756 -0.00461125 0.104518 -0.0430028 -0.0363963 -0.00304116 -0.0259575
0.0750371 -0.0491061 -0.0165168 -0.00379068 -0.0603685 0.0781408 -0.0601914 0.0959931 -0.028656 -0.0724197
-0.00695552 -0.0256128 -0.0417484 -0.0185175 -0.0666077 -0.0349908 -0.0106423 0.108176 0.0798073 -0.0481124
-0.0273154 0.0874671 -0.0593049 -0.0591279 -0.0143052 -0.0196572 -0.0250184 0.112437 -0.00726969 -0.0714586
-0.00710492 -0.00600976 0.108744 0.107732 -0.00410357 -0.0339223 -0.040896 0.107173 -0.0175552 0.106402
-0.00180691 -0.0656503 -0.0201632 -0.000648902 -0.0260754 -0.0470963 0.0821642 -0.0242016 0.0672877 -0.0201445
0.0685606 -0.00103464 0.0663633 -0.0583496 -0.0581727 0.0973543 0.0702389 -0.0707892 -0.0031275 0.0674159
-0.0330287 -0.020183 -0.0398125 -0.0219544 -0.0649804 0.0711772 -0.00576147 -0.0251075 0.109442 -0.0231912
0.0690628 -0.0461851 -0.00854619 -0.0230888 -0.0198718 -0.0576803 -0.0575035 0.113869 -0.00787038 0.0730683
-0.00830975 0.110249 0.109211 -0.00806529 -0.0321008 0.07311 -0.0701718 -0.0072646 0.108486 -0.0390304
-0.0110732 0.107577 -0.0221875 -0.00548562 -0.0242812 -0.0236533 -0.0643639 -0.00449525 -0.0192897 -0.0455454
-0.0132025 0.0767371 -0.00453617 0.0981996 0.0801992 -0.0570651 -0.0568885 -0.0238134 -0.00572398 -0.0312804
-0.0213582 -0.0147832 -0.0383137 -0.0693522 -0.0234187 -0.0185099 -0.0075924 0.110508 0.0814771 -0.0635568
-0.0449438 -0.0236603 -0.0158418 -0.00971053 0.0894863 0.114985 -0.00599587 -0.00697138 0.111404 0.110405
-0.00742145 -0.0206142 -0.0562715 -0.0560952 -0.0306853 0.109841 -0.0176933 -0.00716822 -0.011635 0.109051
-0.0226547 -0.0378238 -0.00578815 -0.0164106 -0.0685002 -0.0232377 -0.00493867 -0.0134082 0.0838608 -0.00475849
-0.0627181 -0.0441782 0.0994137 0.069076 0.0703066 -0.0166921 0.0681741 -0.0169635 -0.0198452 -0.00537408
-0.0148019 0.0719447 -0.0301189 -0.022621 0.0692446 -0.0554474 -0.0552714 -0.022094 -0.00669007 -0.0369791
0.11164 0.0728445 -0.0678395 -0.0167092 0.0709152 -0.0158021 -0.00829126 0.116305 -0.0162717 -0.0620669
0.112829 -0.0191637 -0.0434 0.111816 -0.0219604 -0.00598166 -0.0074442 0.0747198 0.111136 -0.00843927
-0.00973234 0.110247 0.0749782 -0.00835402 -0.0164005 -0.0294027 -0.0164384 -0.0215504 -0.00714195 -0.0548092
-0.0546336 -0.0363291 -0.00639996 -0.011128 0.0783693 -0.0155689 -0.00608765 -0.0671675 0.100228 -0.0213523
-0.0167635 0.0819918 -0.0186372 -0.0123295 -0.00637787 -0.015976 -0.0427999 -0.0614063 -0.00728552 0.112803
-0.028708 -0.0208732 -0.0168997 -0.0132458 -0.0541635 -0.0539884 0.083097 -0.0356612 -0.020746 -0.0149519
-0.00848801 0.117557 0.091238 -0.0154681 0.114114 0.113135 -0.0181192 -0.00918707 -0.011161 -0.066282
0.112606 -0.0125487 -0.0095694 -0.0138545 0.111834 -0.0167532 -0.0126368 -0.0421843 -0.0113851 -0.0605366
-0.0202253 -0.0106115 -0.0281577 -0.0106399 -0.0201236 0.0854872 -0.0149851 -0.0144443 -0.0142416 -0.0101608
0.101327 -0.0533114 -0.0531367 -0.0351666 -0.0164124 0.0707634 -0.0102208 -0.0116445 -0.0175114 0.0719356
0.0698778 0.0735191 -0.0654092 0.0709241 -0.0108199 0.113751 -0.0144442 -0.0144706 -0.0195708 -0.041372
-0.0124673 0.0743935 -0.0596791 -0.019708 -0.0160229 -0.0116524 -0.0275909 -0.0139445 0.0725995 0.118653
0.115297 0.1143 0.00502618 0.00263226 0.11363 -0.0144041 0.000978483 -0.0124469 -0.0524717 -0.0342861
-0.0522973 0.112737 -0.0130294 -0.016931 0.000663517 0.0762708 0.0766895 0.00198097 -0.0139331 -0.0156184
-0.0191119 0.00293771 -0.0132824 -0.0647748 -0.0134131 0.00354459 -0.0133882 -0.01417 -0.0405769 0.101927
-0.0191642 0.0799087 -0.0268404 -0.059052 0.00368593 -0.0141041 0.0837148 -0.0164556 0.00332671 -0.0134539
-0.0151715 -0.033615 -0.0136366 0.114569 -0.0518551 -0.0516811 -0.0186506 -0.0148058 -0.0138682 0.00277829
0.0846345 0.119513 0.0928821 -0.0128625 0.116174 0.115211 -0.0641641 0.00158876 -0.00100549 0.114693
-0.0136734 0.00220228 -0.0184571 -0.0152953 -0.00288331 -0.0399923 0.113913 -0.00348431 -0.0261182 -0.0146964
-0.0130528 -0.0584496 -0.00222936 -0.01355 -0.0159422 0.00151494 -0.00105083 -0.018142 -0.0329615 -0.0156792
0.0870279 -0.0512641 -0.0510905 -0.000385326 -0.013514 0.102937 0.00081276 -0.0124115 -0.000127121 -0.0142814
-0.0131817 0.0722831 0.0734243 -0.0126268 0.0714021 -0.0159281 -0.0177718 -0.000309848 -0.0633738 0.115533
-0.0394276 0.00019741 0.0749893 -0.0255742 -0.0132854 0.0724427 -0.0176654 -0.000653379 -0.0153052 -0.0576726
0.120675 0.0758375 0.117427 0.0741253 0.116448 -0.0160099 -0.0325116 -0.000250602 -0.00103726 -0.00252146
0.115803 -0.012776 -0.0065173 -0.0505014 -0.0139095 -0.0503281 -0.00712968 0.11492 -0.0119283 -0.00950478
-0.0130476 -0.0121614 0.0777034 -0.00691871 -0.0015665 0.0782213 -0.0069688 -0.0172553 -0.000651461 -0.0159139
-0.0626232 -0.0172546 -0.00497895 -0.0386932 -0.0250467 -0.0146888 0.103621 -0.00214976 -0.0124056 0.0813483
-0.00601951 -0.0569323 -0.013513 -0.0127648 0.085245 -0.000946322 -0.0317027 -0.00473477 -0.0113512 -0.011737
-0.0157681 0.116582 -0.00268225 -0.0497722 -0.0495991 -0.00633489 0.086071 0.121819 -0.00107549 -0.016743
-0.0168115 -0.0120744 0.118594 0.117649 -0.00310323 -0.0124181 0.0943732 -0.0052461 0.117155 -0.0130881
-0.024356 -0.0621335 -0.0142135 0.11639 -0.0379916 -0.0156058 -0.00706974 -0.0564446 -0.0113708 -0.00348551
-0.0108015 -0.0010322 -0.0311114 0.0884635 -0.0120875 -0.0117253 -0.0492881 -0.0491153 -0.00616239 0.104558
-0.0153779 -0.0162905 -0.0127131 -0.00378798 -0.0160849 -0.000954434 -0.00804798 -0.0137225 0.0737269 0.117399
-0.0237079 0.0748639 0.0728312 -0.0375268 -0.061691 -0.0109591 0.0764144 0.0738523 -0.0103511 -0.0118075
-0.00394133 -0.015081 0.122788 -0.0113493 -0.056005 -0.00705083 0.119637 0.11867 0.0772398 -0.000857259
-0.0305715 0.11803 0.00749352 0.0755335 0.117143 0.00373301 -0.0123714 -0.0157962 -0.0488526 -0.04868
0.00337491 -0.00394892 -0.00885629 0.0791178 -0.0154656 0.0796196 -0.0148087 -0.0131235 -0.01152 -0.0104885
0.0049258 -0.000673848 -0.0232673 -0.0110036 -0.0371047 0.105023 -0.0610686 -0.00988666 -0.00769883 0.0827578
-0.00389931 0.0866497 -0.0119907 -0.0553896 0.00533304 -0.0153844 -0.0302543 0.118108 -0.0145837 -0.000411469
-0.011182 -0.00927354 -0.0482435 -0.048071 0.123564 -0.0150428 -0.0100516 -0.00384127 0.0874543 -0.0106976
0.120433 0.119499 -0.0125656 0.00527054 0.119002 0.0957656 0.118224 -0.022863 -0.00934052 -0.00790546
-0.0365065 -0.0115636 -0.0604604 -0.000185785 -0.0143282 -0.0149546 -0.00369747 -0.0108613 -0.0547874 0.0898404
0.00472968 -0.0295704 0.105918 -0.0103622 -0.00931979 -0.00968056 -0.0476469 -0.0474744 -0.0146404 -0.0121704
-6.25247e-06 -0.0140229 0.118955 -0.00348259 -0.0111784 -0.00883919 0.0751772 -0.0222855 0.0763381 0.0742433
-0.0105957 -0.00783734 -0.0359234 0.00402657 0.0778927 0.124595 -0.0144566 0.075214 -0.0600882 0.121549
0.120596 0.119968 -0.00998161 0.0161775 0.119083 0.0154277 0.0786988 0.0131553 -0.0544136 0.0768658
-0.00927696 0.000221954 -0.0290866 -0.00327224 0.0136691 0.0133104 -0.0137476 -0.00911918 0.0152137 -0.0140833
-0.0472719 -0.0470995 0.0805542 -0.0117678 -0.0108326 0.0809067 -0.0103151 0.014413 -0.00845594 0.00352921
0.106461 0.0153729 -0.021736 -0.0140017 -0.00312145 -0.00962679 0.000507034 0.084144 -0.0355551 -0.00754204
0.0144893 0.0878805 -0.0597366 -0.0135246 0.11986 -0.00882286 0.0156005 -0.0540625 -0.0286358 -0.00997126
0.125592 -0.0104561 0.122561 0.121638 0.0145038 0.0888176 -0.0135516 -0.00292428 -0.0112547 0.121156
-0.0469218 -0.0467494 -0.00877432 0.011634 0.120386 0.0969407 0.0100524 0.00327965 0.000744125 0.008769
-0.00806515 0.008342 -0.00931855 0.0152744 0.00900435 -0.0136452 -0.0132701 -0.0213767 0.00979807 -0.0352144
-0.00841548 0.0141216 0.0100399 0.0912053 -0.059195 -0.00964277 -0.00720892 -0.00267485 0.107221 0.0099865
-0.0100394 0.000929423 -0.0283969 0.0150067 -0.0535252 0.0101065 -0.0107732 -0.0132025 0.120506 -0.00898122
0.00325007 -0.0129571 -0.00759188 0.0102227 -0.0463873 -0.046215 0.0136727 0.0764421 -0.0132762 0.0776399
0.0754652 0.126376 -0.00842214 -0.00244973 -0.0210508 0.0101331 0.123402 0.122455 0.0792382 -0.00808746
0.0763744 0.121819 -0.00937191 0.120923 -0.00292931 0.00116021 -0.00379457 0.0143553 -0.0346897 -0.00548094
0.0800262 0.00988251 -0.00561405 -0.00967723 0.0780015 -0.0586507 -0.00531741 -0.00406862 -0.0126719 -0.027786
-0.00860363 0.00980057 -0.0529851 0.0818401 -0.00681432 0.013302 -0.00427834 -0.0104464 0.0820351 -0.0128774
-0.00228908 -0.00715785 0.00343771 0.107554 -0.00378473 -0.0128386 -0.0458506 -0.0456783 0.00973112 -0.00908612
0.00145571 -0.00413127 -0.00773399 0.0854128 0.0143886 -0.0205459 0.0889861 0.12107 -0.00936676 -0.00354761
0.00945779 -0.00801918 -0.0341629 -0.0124409 0.126976 -0.00208478 -0.00826704 -0.00412425 0.124007 0.12309
0.0131547 -0.0583268 0.0900809 0.122594 0.121802 0.00913153 -0.027356 0.0979949 -0.0526604 -0.0101106
0.00170592 -0.00388488 -0.00683774 -0.0123926 -0.0087436 -0.0124415 0.0139494 -0.00732887 0.00366619 -0.0455261
-0.0453538 -0.00645069 0.00910464 -0.0043711 -0.0090308 -0.0121811 0.0924638 -0.0200509 -0.00182605 0.108263
-0.00393279 -0.0079879 -0.0338481 0.00918311 0.0130427 0.00189869 0.121739 -0.0580418 -0.0084268 -0.00463651
-0.00764681 -0.0269614 -0.00965913 -0.00650556 -0.0523758 -0.0121398 -0.0119157 0.127829 0.00900459 0.0773702
0.0786439 0.12494 0.124004 -0.00696895 0.0763352 -0.00158923 0.0143006 -0.0118692 0.123375 -0.00448748
0.0802811 0.122477 -0.00865308 0.0772107 -0.0452427 -0.0450705 -0.00636392 -0.00808008 0.00397322 -0.0197499
0.0810703 -0.00768027 -0.00822838 0.00876612 0.0788416 0.00213613 -0.00494256 -0.00603988 0.0132204 -0.033574
-0.0081755 -0.00744113 0.0829022 0.0828842 0.108647 -0.00142212 -0.057581 -0.00608771 0.00886374 -0.0092342
-0.0044182 -0.0118216 -0.011589 -0.026788 -0.0073106 -0.00668617 -0.0116276 -0.0519172 0.0864946 -0.00833208
0.122484 0.0141421 0.0898374 0.0024339 -0.00733487 -0.00722868 -0.0447845 -0.0446123 -0.00503582 0.128664
0.0090879 -0.0194904 -0.00731645 0.125783 0.124877 0.124396 -0.00791151 0.0911818 0.123617 -0.00121001
0.00424864 0.0987955 0.0133168 -0.033124 -0.0113685 -0.00481776 0.00903849 -0.00570933 -0.0114343 -0.00896941
-0.00742943 -0.057135 -0.00637792 -0.0262506 -0.00566103 -0.00806177 0.00268388 -0.0113693 0.0935775 -0.0514727
-0.0070329 0.109157 -0.00516258 0.0146301 -0.0443403 -0.0441681 -0.000946358 -0.00759648 0.00891235 -0.0190569
0.122908 -0.00756541 -0.0111244 -0.00451722 0.129232 -0.00684085 -0.0326839 0.126406 0.125476 0.0136018
0.00287076 0.0788038 -0.0110904 0.124844 -0.00544896 0.0801696 -0.00601915 0.0776318 0.123941 0.00908809
-0.00869907 0.00456274 0.00462327 -0.00776746 0.00369557 0.0818797 -0.0569088 0.0783788 -0.0259023 -0.00678741
-0.0109551 0.00347823 -0.000707633 -0.00502879 -0.0512445 -0.00771897 0.0826924 -0.00730699 0.079909 0.0038759
0.0145531 -0.0441109 -0.0439387 -0.0108315 0.00936851 0.0844521 -0.00523553 -0.0186409 0.0838601 0.109234
0.0030979 0.00394754 -0.00470846 -0.0324601 -0.0108447 -0.0057074 0.0879289 0.123233 -0.00517789 -0.0074323
0.0907603 -0.000543386 -0.00831614 -0.00780108 -0.00651515 0.0137436 0.00936166 0.00402404 0.129607 -0.056717
-0.0105532 -0.0255963 -0.00708216 0.126783 0.125883 -0.00498297 0.125393 -0.00641387 0.124597 -0.05105
-0.0105743 0.0925124 0.00485185 0.0996097 0.00338428 -0.043914 -0.0437418 0.00398773 -0.0184224 0.00926566
0.0150548 -0.00427964 -0.000338964 -0.0078592 -0.00547483 -0.0105815 -0.0071545 0.0948612 -0.00482366 -0.00620879
-0.0322687 0.109796 -0.00795867 -0.00684667 -0.00485486 0.00392367 -0.0103414 -0.0103763 -0.0255012 -0.0563538
0.123726 0.00945515 -0.00475931 0.0140378 0.0036139 -0.050688 0.130266 0.127511 0.126589 -8.31889e-05
0.125963 -0.0435517 -0.0433795 0.125062 -0.018237 0 0.0811737 0.0827034 0 0.0797769