/*--------------------------------*- C++ -*----------------------------------*\
  =========                 |
  \\      /  F ield         | OpenFOAM: The Open Source CFD Toolbox
   \\    /   O peration     | Website:  https://openfoam.org
    \\  /    A nd           | Version:  10
     \\/     M anipulation  |
\*---------------------------------------------------------------------------*/
FoamFile
{
    format      ascii;
    class       volVectorField;
    location    "2000";
    object      U;
}
// * * * * * * * * * * * * * * * * * * * * * * * * * * * * * * * * * * * * * //

dimensions      [0 1 -1 0 0 0 0];

internalField   nonuniform List<vector> 
55398
(
(20.6662 0.272542 0.000146891)
(21.198 0.416576 0.000407871)
(20.862 0.0950846 0.000325969)
(20.5775 0.585267 0.01036)
(20.1212 0.817384 -0.0192617)
(18.0577 0.981399 0.0295923)
(21.4619 0.162241 0.00117906)
(21.6305 0.327579 0.00137924)
(21.4372 0.414092 -0.0034982)
(21.174 0.803303 -0.00045682)
(20.7613 1.17594 0.00437389)
(19.9605 1.88187 0.00477627)
(18.4969 3.44434 0.025836)
(14.1831 6.48903 0.0183959)
(-2.2553 -0.181984 0.241516)
(5.45636 -0.783955 0.215547)
(11.2103 -1.62667 0.059479)
(14.547 -1.29486 0.043504)
(17.3034 -0.780173 0.0107268)
(19.0165 -1.7834 0.00156423)
(22.1029 0.199681 -0.00538207)
(22.1034 0.359941 -0.011398)
(21.9836 0.652406 -0.0225163)
(21.762 1.03601 -0.020117)
(21.4146 1.61504 -0.0276765)
(20.8867 2.66066 -0.0103483)
(20.2137 4.96507 0.119924)
(19.6343 8.25915 0.0190854)
(0.369987 0.00933489 0.667285)
(18.7426 -3.85861 -0.171061)
(21.4042 -3.30917 -0.0406791)
(22.4569 -2.79694 -0.0299656)
(22.8839 -2.10505 0.0111977)
(23.5312 -1.73841 0.0086135)
(23.6872 -1.85926 0.0489832)
(22.4968 0.166788 -0.00381213)
(22.4957 0.396124 -0.0118639)
(22.4175 0.692995 -0.0222945)
(22.265 1.11219 -0.0249147)
(22.0772 1.74321 -0.0341339)
(21.8373 2.81834 -0.0322054)
(21.9724 4.8596 0.0379098)
(22.3502 7.45475 0.0444137)
(27.045 10.8645 0.112196)
(28.8282 3.60449 0.395048)
(25.2781 -2.90649 0.126806)
(26.2896 -3.79877 -0.0568182)
(25.9107 -3.36862 -0.146243)
(25.2477 -2.87603 -0.0793727)
(24.7902 -2.47508 -0.0340453)
(24.5379 -1.90673 -0.0120621)
(24.5178 -1.78755 0.0163418)
(24.4453 -1.60615 0.0141302)
(22.8265 0.155827 -0.00319381)
(22.8299 0.418438 -0.0121646)
(22.7919 0.728937 -0.0206018)
(22.7175 1.16429 -0.02581)
(22.6681 1.80659 -0.029182)
(22.6983 2.80518 -0.0281009)
(23.1606 4.49296 0.00208254)
(25.1518 6.31869 0.0251145)
(27.9065 6.75846 -0.234915)
(30.7154 3.88484 -0.349054)
(32.1678 2.01033 -0.165428)
(30.314 -2.56621 -0.45179)
(28.3851 -2.53619 -0.382313)
(27.3188 -2.87162 -0.115367)
(26.6436 -2.8745 -0.088382)
(25.9161 -2.59732 -0.0532961)
(25.3963 -2.267 -0.031194)
(25.0547 -1.82552 -0.0252248)
(24.9827 -1.67515 -0.0164842)
(24.8063 -1.53855 -0.0165647)
(23.1106 0.148436 -0.00281545)
(23.1209 0.424979 -0.011711)
(23.1196 0.743616 -0.0194515)
(23.1159 1.1764 -0.0241801)
(23.1797 1.78788 -0.0266167)
(23.38 2.68825 -0.0239919)
(24.04 3.91238 -0.00872115)
(25.7856 5.44022 0.00335728)
(28.5776 4.66337 -0.0105927)
(30.3679 2.92519 -0.0174512)
(31.3569 1.3064 0.104687)
(30.0116 -1.31558 -0.0203333)
(28.5823 -1.98184 -0.0442578)
(27.6405 -2.3545 -0.0846026)
(27.0242 -2.42907 -0.079776)
(26.3447 -2.26686 -0.0662269)
(25.8359 -2.04036 -0.0565034)
(25.4293 -1.68827 -0.0484935)
(25.3092 -1.56227 -0.0407772)
(25.0469 -1.45441 -0.0348846)
(23.3601 0.140842 -0.00253941)
(23.379 0.420543 -0.0102603)
(23.4095 0.738004 -0.0201088)
(23.4682 1.15265 -0.019709)
(23.6138 1.71392 -0.0192027)
(23.9383 2.4912 -0.0185189)
(24.6431 3.41511 -0.00622362)
(26.1766 4.39205 -0.00232559)
(28.2778 3.89596 -0.00299651)
(29.8738 2.31837 0.0111579)
(30.3268 0.54978 0.0314564)
(29.6119 -1.13101 -0.00660486)
(28.6642 -1.6829 -0.0464502)
(27.8061 -1.98686 -0.0749312)
(27.2393 -2.0737 -0.0625783)
(26.6127 -1.99649 -0.0493034)
(26.1296 -1.8429 -0.0419386)
(25.6931 -1.57522 -0.0329144)
(25.538 -1.46997 -0.0282486)
(25.21 -1.37725 -0.024076)
(23.5828 0.134698 -0.00217411)
(23.6105 0.406944 -0.00925863)
(23.668 0.714423 -0.0172084)
(23.7772 1.10144 -0.0158399)
(23.985 1.60539 -0.0118341)
(24.3833 2.25027 -0.00524088)
(25.0957 2.96808 -0.00230909)
(26.4003 3.60284 -0.00312293)
(28.0794 3.27172 -0.00473026)
(29.4324 2.00996 0.00884278)
(29.881 0.551748 0.0132442)
(29.4332 -0.801647 -0.0123295)
(28.6881 -1.35695 -0.0426261)
(27.9238 -1.63738 -0.0459532)
(27.3836 -1.76446 -0.0394779)
(26.8063 -1.75593 -0.0358702)
(26.3488 -1.66097 -0.0338465)
(25.905 -1.4606 -0.0314936)
(25.7215 -1.37316 -0.0297091)
(25.3521 -1.2901 -0.028283)
(23.7843 0.127192 -0.0010103)
(23.8215 0.385372 -0.00409963)
(23.902 0.675796 -0.00715118)
(24.047 1.03115 -0.0057287)
(24.2992 1.47328 -0.000378317)
(24.7328 2.00017 0.000645787)
(25.4379 2.55719 -0.00130479)
(26.5559 2.98336 -0.00761098)
(27.9263 2.73378 -0.0124678)
(29.0623 1.74496 -0.00200689)
(29.4926 0.560564 0.00370555)
(29.2234 -0.55685 -0.0192268)
(28.6336 -1.11995 -0.0469509)
(27.9695 -1.39897 -0.0564028)
(27.4675 -1.52738 -0.051142)
(26.9417 -1.54539 -0.0476245)
(26.5117 -1.48389 -0.0446456)
(26.0704 -1.32854 -0.0407732)
(25.8675 -1.25286 -0.0373903)
(25.4642 -1.18098 -0.0341361)
(23.9679 0.117507 5.32122e-05)
(24.0136 0.357716 0.000730038)
(24.1126 0.625186 0.00196937)
(24.2851 0.944479 0.00448961)
(24.5679 1.32634 0.00955914)
(25.016 1.76321 0.00929213)
(25.693 2.1856 0.00730859)
(26.6684 2.46339 -0.00255848)
(27.8073 2.26168 -0.0171739)
(28.7668 1.47912 -0.00893158)
(29.1725 0.527394 -0.0020319)
(29.0173 -0.401283 -0.0226646)
(28.5671 -0.907547 -0.0548429)
(27.9974 -1.17155 -0.0520895)
(27.5333 -1.28988 -0.0458237)
(27.046 -1.32518 -0.0406332)
(26.6407 -1.29133 -0.0374699)
(26.2054 -1.18055 -0.033006)
(25.9887 -1.12084 -0.0301798)
(25.5547 -1.06403 -0.0269155)
(24.1355 0.106918 4.84064e-05)
(24.1877 0.325159 0.000618814)
(24.3012 0.565713 0.00176966)
(24.4948 0.84587 0.00448217)
(24.7978 1.17108 0.00778392)
(25.2502 1.52708 0.00802236)
(25.8949 1.85142 0.00796685)
(26.7563 2.03222 0.00331233)
(27.7172 1.86107 -0.00866517)
(28.5361 1.24645 -0.00848712)
(28.9171 0.478714 -0.00573351)
(28.8455 -0.271631 -0.0208342)
(28.499 -0.722906 -0.0390914)
(28.0149 -0.972145 -0.0404457)
(27.583 -1.09138 -0.0358054)
(27.1295 -1.13636 -0.0320946)
(26.7451 -1.12448 -0.0305715)
(26.3188 -1.04653 -0.0278267)
(26.0922 -0.999954 -0.0259798)
(25.6398 -0.951858 -0.0236958)
(24.2902 0.0949284 3.2135e-05)
(24.3477 0.288377 0.000469556)
(24.4725 0.499731 0.0012465)
(24.6813 0.741065 0.00320409)
(24.9967 1.01284 0.00518701)
(25.4466 1.30262 0.00672897)
(26.0561 1.55033 0.00520757)
(26.8265 1.66671 0.00127383)
(27.6523 1.52089 -0.0024093)
(28.3638 1.03708 -0.00874013)
(28.7164 0.425963 -0.00839937)
(28.698 -0.183413 -0.0194524)
(28.4341 -0.572968 -0.0327502)
(28.0238 -0.804244 -0.0347306)
(27.6229 -0.915349 -0.0331524)
(27.2007 -0.960311 -0.0309397)
(26.8333 -0.961035 -0.0290171)
(26.4173 -0.905328 -0.0263116)
(26.1846 -0.868332 -0.0244874)
(25.7173 -0.828339 -0.0221838)
(24.4339 0.0818663 2.22601e-05)
(24.4955 0.248423 0.000343989)
(24.6287 0.428961 0.000906805)
(24.8483 0.631598 0.00223238)
(25.1706 0.854086 0.00354284)
(25.614 1.08411 0.00429851)
(26.1914 1.27159 0.00229216)
(26.8894 1.34859 -0.00103373)
(27.6124 1.226 -0.00254184)
(28.2432 0.846731 -0.00620772)
(28.5687 0.365323 -0.00728548)
(28.5862 -0.11804 -0.0158659)
(28.381 -0.44711 -0.0251978)
(28.0356 -0.648899 -0.0294364)
(27.6633 -0.746557 -0.0286614)
(27.2641 -0.790472 -0.0263565)
(26.912 -0.798276 -0.024312)
(26.5057 -0.76121 -0.0214229)
(26.2693 -0.733882 -0.0197202)
(25.7924 -0.702867 -0.0176086)
(24.568 0.0679682 1.42886e-05)
(24.6327 0.206035 0.0002343)
(24.7721 0.354679 0.000612624)
(24.999 0.518962 0.00148147)
(25.3237 0.696925 0.00231416)
(25.7599 0.874506 0.00207239)
(26.3096 1.01347 0.000134498)
(26.9495 1.06518 -0.00234807)
(27.5995 0.965042 -0.00356685)
(28.1664 0.673019 -0.00521812)
(28.4696 0.2937 -0.00596766)
(28.5081 -0.0773674 -0.00992097)
(28.3481 -0.342514 -0.0146765)
(28.0514 -0.509045 -0.0175735)
(27.7049 -0.595308 -0.0175634)
(27.3272 -0.635295 -0.0159293)
(26.9876 -0.646046 -0.0146239)
(26.5899 -0.621298 -0.012858)
(26.3518 -0.600994 -0.0118321)
(25.868 -0.57665 -0.0105577)
(24.6937 0.0534357 8.54329e-06)
(24.7607 0.161845 0.000144366)
(24.9045 0.277941 0.000375003)
(25.1363 0.404472 0.00089104)
(25.4623 0.541169 0.00127575)
(25.8895 0.671283 0.000695629)
(26.4202 0.770785 -0.00109266)
(27.0045 0.806289 -0.0031822)
(27.6484 0.71847 -0.00393144)
(28.0875 0.52 -0.00473811)
(28.4807 0.243501 -0.00511243)
(28.477 -0.0492652 -0.00570105)
(28.3425 -0.25542 -0.00779352)
(28.0783 -0.385736 -0.00979559)
(27.7542 -0.453922 -0.0100642)
(27.3945 -0.486265 -0.0092804)
(27.0642 -0.496954 -0.00874596)
(26.6737 -0.481129 -0.00789676)
(26.435 -0.466731 -0.0073805)
(25.9467 -0.448876 -0.00667926)
(24.8119 0.0384456 4.44204e-06)
(24.8806 0.116389 7.7155e-05)
(25.0274 0.199482 0.000190539)
(25.2621 0.289369 0.000488512)
(25.5889 0.384992 0.000303991)
(26.0095 0.475513 3.25121e-05)
(26.5215 0.543432 -0.00136712)
(27.0798 0.562792 -0.00277304)
(27.6605 0.50587 -0.00342599)
(28.1137 0.360072 -0.00352755)
(28.4147 0.154027 -0.0038738)
(28.4676 -0.0239417 -0.00439696)
(28.3628 -0.1712 -0.00553968)
(28.1244 -0.266064 -0.00655698)
(27.8175 -0.317226 -0.00657329)
(27.4706 -0.342174 -0.00566234)
(27.1472 -0.351859 -0.00538008)
(26.7619 -0.34283 -0.00482429)
(26.523 -0.333502 -0.00464889)
(26.032 -0.321462 -0.00424446)
(24.9236 0.0231573 1.99251e-06)
(24.9932 0.0700991 2.99242e-05)
(25.142 0.119979 7.67516e-05)
(25.3785 0.173763 0.000166595)
(25.7053 0.229846 0.000134782)
(26.1215 0.283439 -0.000367812)
(26.6214 0.322212 -0.00124882)
(27.1594 0.334154 -0.00201007)
(27.715 0.297661 -0.00228544)
(28.1474 0.216822 -0.00217065)
(28.447 0.0866709 -0.00280046)
(28.4957 -0.00925758 -0.00286618)
(28.405 -0.0977467 -0.00316373)
(28.1832 -0.155971 -0.00353446)
(27.888 -0.18788 -0.00316281)
(27.5505 -0.203073 -0.00253367)
(27.2318 -0.209539 -0.00239234)
(26.8504 -0.204862 -0.00225258)
(26.6117 -0.199545 -0.00210915)
(26.1194 -0.192519 -0.00187485)
(25.0293 0.00772056 6.06818e-08)
(25.0992 0.0233746 6.7561e-06)
(25.2487 0.039989 1.31394e-05)
(25.4858 0.0578328 3.76393e-05)
(25.8127 0.0763215 2.93517e-05)
(26.2261 0.0936368 -0.000203894)
(26.7215 0.10563 -0.000523618)
(27.2442 0.109574 -0.00081946)
(27.8073 0.0964684 -0.000916681)
(28.1988 0.0696317 -0.000864267)
(28.5311 0.03645 -0.000983102)
(28.5476 -0.00545736 -0.00103721)
(28.4718 -0.0342865 -0.00118939)
(28.2598 -0.0534859 -0.00134312)
(27.9704 -0.0638618 -0.000993909)
(27.636 -0.0689732 -0.000805827)
(27.3198 -0.0711445 -0.000700194)
(26.9394 -0.069526 -0.000614177)
(26.7 -0.0676903 -0.000486816)
(26.2062 -0.065223 -0.000292817)
(20.669 0.259189 0.000599731)
(21.2086 0.403248 0.00208023)
(20.8865 0.100304 -0.000646354)
(20.6851 0.616487 -0.00481482)
(20.0177 0.771825 0.00834326)
(18.864 1.08786 -0.00875804)
(21.478 0.155164 -0.000189672)
(21.6449 0.326485 0.00334755)
(21.4597 0.418253 0.00312131)
(21.1969 0.804325 -0.000409385)
(20.7767 1.16885 -0.00477752)
(19.9907 1.89148 -0.00299693)
(18.4799 3.50322 -0.159775)
(13.9982 6.01695 -0.137453)
(3.20318 -0.872978 1.85016)
(7.60799 -1.44105 1.76815)
(11.8728 -1.89887 0.927904)
(14.4197 -1.60007 0.60892)
(16.7361 -0.963434 0.40614)
(18.7881 -1.83077 0.0849437)
(22.1135 0.193566 0.0003121)
(22.1157 0.358311 0.0032229)
(21.9997 0.652917 0.00358534)
(21.7811 1.03909 3.76323e-05)
(21.4354 1.62479 0.00416296)
(20.94 2.67963 -0.0239305)
(20.2712 4.95035 -0.130699)
(19.8502 8.26378 -0.141063)
(1.00808 -0.459736 -3.52724)
(18.1916 -3.83452 -0.926453)
(21.1182 -3.36274 -0.428122)
(22.4251 -2.81601 -0.261028)
(23.2455 -2.00792 -0.174243)
(23.4528 -1.86864 -0.191051)
(23.7248 -1.67932 -0.170669)
(22.5028 0.164949 -1.45558e-05)
(22.5055 0.396252 0.00346859)
(22.4299 0.693741 0.00554721)
(22.2816 1.11453 0.00139076)
(22.095 1.7469 0.00543681)
(21.8805 2.83035 -0.0215823)
(22.0348 4.81382 -0.119714)
(22.3167 7.40923 -0.0756056)
(27.2123 11.3121 -0.148635)
(29.2664 3.56395 -0.239461)
(24.5165 -3.1378 -0.109296)
(26.4634 -3.45152 -0.583789)
(25.9712 -3.37101 -0.385763)
(25.2913 -2.92866 -0.192911)
(24.7761 -2.53225 -0.122209)
(24.5275 -1.89417 -0.0909284)
(24.537 -1.80601 -0.0568988)
(24.4581 -1.60403 -0.0698271)
(22.8309 0.155229 -0.000104884)
(22.8377 0.418461 0.00326898)
(22.8021 0.729149 0.00579383)
(22.7323 1.16503 0.00216844)
(22.6818 1.80671 0.00515551)
(22.7348 2.80155 -0.0191203)
(23.201 4.47378 -0.0689986)
(25.1349 6.21075 -0.0338463)
(27.8862 6.85339 0.0136472)
(30.7252 3.72018 0.0426789)
(32.0484 1.05313 -0.058925)
(30.2016 -2.5415 -0.0559545)
(28.1524 -2.59264 -0.187367)
(27.3027 -2.72115 -0.284048)
(26.6371 -2.78073 -0.187656)
(25.9015 -2.54339 -0.0739591)
(25.3705 -2.246 -0.0369016)
(25.0197 -1.79999 -0.0231829)
(24.953 -1.67229 -0.0146936)
(24.776 -1.54158 -0.0216716)
(23.1139 0.148071 -0.000215619)
(23.1274 0.424718 0.00283991)
(23.1283 0.743487 0.00555322)
(23.1283 1.17545 0.00259522)
(23.1918 1.78636 0.00441659)
(23.4076 2.67434 -0.0137816)
(24.0685 3.89832 -0.0330868)
(25.7792 5.363 -0.0219511)
(28.5451 4.60725 0.0184003)
(30.3605 3.08255 0.0127524)
(30.7887 0.29102 0.038404)
(29.8677 -1.2511 0.0183354)
(28.4769 -1.92591 -0.0330667)
(27.5941 -2.27007 -0.106338)
(26.9963 -2.399 -0.0838751)
(26.3327 -2.27955 -0.0372457)
(25.8268 -2.07087 -0.0193796)
(25.417 -1.72105 -0.00657211)
(25.3021 -1.59984 -0.00202549)
(25.042 -1.48624 -0.00273519)
(23.3628 0.140655 -0.000214656)
(23.3845 0.420229 0.00238801)
(23.4171 0.737257 0.00522388)
(23.4768 1.15104 0.00223761)
(23.6234 1.71054 0.00223365)
(23.9524 2.47637 -0.009939)
(24.6639 3.38894 -0.0195957)
(26.1791 4.36033 -0.00495572)
(28.2814 3.82282 0.0477448)
(29.8102 2.39666 0.0387311)
(30.2832 0.401294 0.0622947)
(29.5952 -1.22871 0.032943)
(28.6077 -1.81092 -0.00244745)
(27.8042 -2.03918 -0.0458254)
(27.2398 -2.11968 -0.0437137)
(26.6214 -2.03505 -0.0137593)
(26.1381 -1.87792 0.000491256)
(25.6966 -1.60265 0.0141738)
(25.5432 -1.49211 0.0169689)
(25.2187 -1.39038 0.015967)
(23.5849 0.134643 -0.000181575)
(23.615 0.406729 0.00204992)
(23.6744 0.712773 0.0047736)
(23.7825 1.09921 0.00214504)
(23.9903 1.59911 -0.000682303)
(24.3897 2.24231 -0.00667318)
(25.1033 2.94357 -0.00869201)
(26.4009 3.57062 0.00350193)
(28.0765 3.22478 0.0332602)
(29.4 2.02706 0.0314171)
(29.8587 0.513033 0.0431365)
(29.427 -0.798053 0.0314315)
(28.6711 -1.35646 0.0204245)
(27.9267 -1.60556 0.00467773)
(27.3833 -1.73418 0.000721963)
(26.81 -1.73014 0.015024)
(26.3536 -1.63889 0.0190508)
(25.9031 -1.4455 0.0245093)
(25.7223 -1.35712 0.0236342)
(25.3522 -1.27521 0.0208618)
(23.7855 0.12692 -0.000310644)
(23.8237 0.385317 0.000406306)
(23.9054 0.674014 0.0010584)
(24.0508 1.02683 -0.00108563)
(24.3025 1.46696 -0.00487487)
(24.7365 1.98836 -0.00420285)
(25.4413 2.53569 -0.00431011)
(26.5567 2.95365 0.00654243)
(27.9227 2.69339 0.0360809)
(29.0434 1.73292 0.031719)
(29.4761 0.540593 0.03311)
(29.2167 -0.556269 0.029572)
(28.6206 -1.13061 0.0261348)
(27.9677 -1.39806 0.0148506)
(27.4655 -1.52498 0.0101176)
(26.9412 -1.54191 0.0140076)
(26.5126 -1.48061 0.0159868)
(26.0673 -1.32922 0.0202751)
(25.8654 -1.25235 0.0213193)
(25.46 -1.17781 0.0192611)
(23.9681 0.117627 -0.000319978)
(24.0139 0.35776 -0.000853062)
(24.1135 0.624119 -0.0022057)
(24.2868 0.940915 -0.00540186)
(24.5696 1.32144 -0.00925932)
(25.0181 1.75321 -0.00860382)
(25.6948 2.17517 -0.00601715)
(26.6688 2.45279 0.00533891)
(27.8044 2.24048 0.0254471)
(28.7557 1.47067 0.0304212)
(29.161 0.517572 0.0292821)
(29.0133 -0.393451 0.0308214)
(28.5579 -0.908896 0.029383)
(27.9988 -1.16117 0.0232139)
(27.5324 -1.28058 0.0193881)
(27.0467 -1.31304 0.0216575)
(26.642 -1.27971 0.0225543)
(26.2038 -1.17331 0.0249701)
(25.9871 -1.11425 0.0244441)
(25.5548 -1.05547 0.0222924)
(24.1358 0.106909 -0.000248716)
(24.1879 0.325109 -0.000756071)
(24.3019 0.565302 -0.00202088)
(24.496 0.844524 -0.0049746)
(24.7989 1.16942 -0.00758005)
(25.251 1.52225 -0.00769202)
(25.8958 1.84508 -0.00607903)
(26.7567 2.02459 0.000659706)
(27.7155 1.8473 0.0114121)
(28.5297 1.23961 0.0187384)
(28.9102 0.466094 0.0208044)
(28.8424 -0.262501 0.0240213)
(28.4902 -0.724507 0.0258037)
(28.0147 -0.966662 0.0218794)
(27.5816 -1.08783 0.0183376)
(27.129 -1.13227 0.0188973)
(26.7456 -1.11954 0.0182217)
(26.318 -1.04439 0.0189096)
(26.0915 -0.997613 0.018651)
(25.6403 -0.947196 0.0170269)
(24.2904 0.0949165 -0.000198391)
(24.3479 0.288362 -0.000590471)
(24.4729 0.499508 -0.00153951)
(24.6821 0.740392 -0.00375831)
(24.9976 1.01198 -0.0055045)
(25.4473 1.30123 -0.00608345)
(26.0563 1.54779 -0.00398428)
(26.8263 1.66307 0.000530855)
(27.652 1.51681 0.00505015)
(28.3599 1.03742 0.0105014)
(28.7138 0.419278 0.0137589)
(28.6976 -0.172452 0.0211789)
(28.431 -0.569804 0.0254553)
(28.0251 -0.800431 0.0223302)
(27.6237 -0.911301 0.0185681)
(27.2021 -0.955792 0.0178347)
(26.8363 -0.953577 0.0176256)
(26.4184 -0.900116 0.017926)
(26.1857 -0.863181 0.0175449)
(25.719 -0.821924 0.0162325)
(24.4341 0.0818585 -0.000148913)
(24.4956 0.24841 -0.000431416)
(24.629 0.428767 -0.0011379)
(24.8489 0.631047 -0.00266813)
(25.1711 0.853663 -0.00388839)
(25.6144 1.0827 -0.00399158)
(26.1916 1.26975 -0.00165071)
(26.8893 1.34647 0.00199599)
(27.6122 1.22322 0.00470858)
(28.2408 0.84607 0.00698088)
(28.5672 0.361775 0.00964651)
(28.585 -0.114723 0.0145967)
(28.3801 -0.444942 0.0179629)
(28.0348 -0.648858 0.0153838)
(27.6644 -0.744055 0.0123256)
(27.2647 -0.787839 0.0119173)
(26.9136 -0.79449 0.0119217)
(26.5055 -0.760223 0.0118622)
(26.2692 -0.733446 0.0116019)
(25.7928 -0.701775 0.010495)
(24.5681 0.0679621 -0.000103618)
(24.6328 0.206026 -0.000294718)
(24.7723 0.354506 -0.000777759)
(24.9994 0.518563 -0.00181754)
(25.3242 0.696465 -0.00195841)
(25.7599 0.873676 -0.00200766)
(26.3097 1.01249 0.000169029)
(26.949 1.06413 0.00300545)
(27.6007 0.962281 0.00467894)
(28.1644 0.67302 0.00569488)
(28.469 0.291137 0.0077517)
(28.5077 -0.0744911 0.0096681)
(28.3472 -0.340987 0.00986114)
(28.0512 -0.508016 0.00923192)
(27.7054 -0.594479 0.00706982)
(27.3277 -0.634769 0.00751658)
(26.9887 -0.645201 0.00782503)
(26.5896 -0.622846 0.00786891)
(26.3517 -0.602942 0.00786163)
(25.8686 -0.577718 0.00727686)
(24.6938 0.0534308 -6.60537e-05)
(24.7608 0.161842 -0.000181423)
(24.9047 0.277779 -0.000493768)
(25.1365 0.404264 -0.00106337)
(25.4627 0.540005 -0.00115764)
(25.8896 0.670753 -0.000407163)
(26.4198 0.77042 0.00140929)
(27.0058 0.80524 0.00319393)
(27.642 0.719188 0.00425614)
(28.0941 0.517085 0.00462169)
(28.4711 0.24271 0.00610857)
(28.4769 -0.0474138 0.00543911)
(28.3421 -0.254353 0.00432372)
(28.0783 -0.384974 0.0036595)
(27.7548 -0.453314 0.00379586)
(27.3949 -0.486087 0.00460721)
(27.0652 -0.496449 0.00482169)
(26.6736 -0.482193 0.0048513)
(26.435 -0.467957 0.00497233)
(25.9474 -0.449328 0.00469512)
(24.812 0.0384423 -3.63371e-05)
(24.8806 0.116388 -9.95767e-05)
(25.0275 0.199362 -0.000262823)
(25.2623 0.289228 -0.000574344)
(25.589 0.384124 -0.000625673)
(26.0096 0.474693 0.000415316)
(26.5215 0.542577 0.00178214)
(27.0798 0.562017 0.00327938)
(27.6608 0.505104 0.00347885)
(28.1124 0.357795 0.00377888)
(28.4199 0.162447 0.00418268)
(28.4682 -0.0232361 0.00354387)
(28.3621 -0.171243 0.00276194)
(28.1236 -0.266428 0.00244085)
(27.8171 -0.31696 0.00230437)
(27.4701 -0.34211 0.00280674)
(27.1472 -0.351387 0.00276016)
(26.7612 -0.343411 0.00265981)
(26.5223 -0.334213 0.00282114)
(26.0319 -0.321662 0.00272204)
(24.9237 0.0231552 -1.59778e-05)
(24.9933 0.0700948 -4.286e-05)
(25.1421 0.119922 -0.000106779)
(25.3786 0.173604 -0.000267958)
(25.7054 0.22984 -7.9559e-05)
(26.1215 0.283299 0.000558662)
(26.6215 0.322101 0.00147895)
(27.1593 0.334098 0.00222431)
(27.7155 0.297547 0.00227756)
(28.1471 0.216741 0.00226822)
(28.4469 0.0866801 0.00182725)
(28.4959 -0.00862425 0.00136832)
(28.4048 -0.0971085 0.000821375)
(28.1828 -0.155633 0.000575585)
(27.8883 -0.186757 0.00042584)
(27.5502 -0.202936 0.00061326)
(27.2321 -0.209216 0.000599856)
(26.8503 -0.205114 0.000567601)
(26.6115 -0.199852 0.000787896)
(26.1197 -0.192517 0.000787411)
(25.0293 0.00772 -5.57223e-06)
(25.0992 0.0233746 -1.15979e-05)
(25.2487 0.0399671 -3.69391e-05)
(25.4859 0.0577965 -7.33277e-05)
(25.8127 0.0762435 5.45339e-06)
(26.2261 0.0934805 0.000222299)
(26.7214 0.105415 0.000540014)
(27.2442 0.109303 0.000795317)
(27.8074 0.0961539 0.000716457)
(28.1987 0.0692033 0.000555161)
(28.5311 0.0363274 0.000303859)
(28.5476 -0.0050251 -0.000190259)
(28.4716 -0.0340955 -0.000667985)
(28.2596 -0.0535313 -0.000961703)
(27.9704 -0.0635398 -0.000704525)
(27.6355 -0.0690259 -0.000942811)
(27.3197 -0.0711195 -0.000892864)
(26.9392 -0.0696637 -0.000806735)
(26.6997 -0.0678318 -0.000545916)
(26.2061 -0.065265 -0.000516459)
(20.67 0.255218 6.52561e-05)
(21.2075 0.402037 0.00108024)
(20.8881 0.103695 -0.00103284)
(20.7182 0.623888 -0.00346559)
(20.1549 0.777414 0.00422637)
(19.0771 1.14697 0.00170094)
(21.4811 0.158981 -0.000334572)
(21.6454 0.325707 0.000242554)
(21.463 0.417329 -0.000342045)
(21.2081 0.805055 -0.000367824)
(20.7864 1.16879 0.00254544)
(20.0014 1.89455 0.00376206)
(18.6623 3.57608 -0.0151432)
(15.0959 6.61449 -0.0032856)
(-0.934039 -0.337813 2.35616)
(3.19306 -0.735147 2.3506)
(7.75469 -1.09387 1.1097)
(11.9501 -1.17387 0.66556)
(14.407 -0.706561 0.549057)
(17.3287 -1.48905 0.105137)
(22.1145 0.193569 8.67518e-06)
(22.1158 0.358923 0.000374417)
(22.0028 0.654146 -0.000585061)
(21.7881 1.04028 0.0010842)
(21.4404 1.62313 0.00798406)
(20.976 2.69025 0.00724406)
(20.3997 4.92355 0.0803311)
(20.0736 8.23386 0.0805854)
(-0.422527 0.815807 -3.15927)
(16.2427 -3.09918 -1.45117)
(20.0632 -3.05848 -0.539945)
(21.7541 -2.64944 -0.243413)
(23.1902 -1.9935 -0.0972438)
(23.3234 -1.84117 -0.117281)
(23.6745 -1.63715 -0.135451)
(22.5036 0.164996 0.000183532)
(22.5056 0.396633 0.00105539)
(22.4326 0.694586 0.000708066)
(22.2891 1.11557 0.00195695)
(22.099 1.74614 0.0121842)
(21.9165 2.82845 0.00959839)
(22.0983 4.77911 0.0764016)
(22.3882 7.30671 0.0535298)
(27.0757 11.1523 -0.0483892)
(29.4332 4.0345 -0.0341683)
(23.624 -2.98726 -0.209736)
(26.4648 -3.10942 -0.64313)
(25.9883 -3.22524 -0.473131)
(25.3242 -2.89755 -0.241308)
(24.8254 -2.51902 -0.164813)
(24.5656 -1.91446 -0.0932715)
(24.5768 -1.82095 -0.0710274)
(24.5063 -1.62357 -0.0781551)
(22.8315 0.1553 0.00023355)
(22.8378 0.418525 0.00115474)
(22.8039 0.729712 0.00109726)
(22.7383 1.16561 0.00176151)
(22.6843 1.80707 0.00982451)
(22.7629 2.79369 0.00761919)
(23.2334 4.44486 0.054328)
(25.1501 6.16524 0.0400187)
(27.8804 6.78308 -0.00455587)
(30.7345 3.70351 -0.000232644)
(31.9963 1.09315 -0.0658682)
(30.2976 -2.35122 -0.130693)
(28.089 -2.51197 -0.228396)
(27.3012 -2.61221 -0.355243)
(26.6718 -2.7532 -0.289281)
(25.9306 -2.56026 -0.154933)
(25.4186 -2.27254 -0.10822)
(25.0503 -1.82452 -0.0705213)
(24.9881 -1.69996 -0.0565265)
(24.8041 -1.55994 -0.0610888)
(23.1144 0.148013 0.000198268)
(23.1275 0.424723 0.00110071)
(23.1297 0.743628 0.00105375)
(23.1327 1.17542 0.00172142)
(23.1943 1.78677 0.0072879)
(23.4256 2.6661 0.00756061)
(24.0887 3.87211 0.0296384)
(25.7878 5.33176 0.0342007)
(28.5379 4.5698 0.00341016)
(30.3542 3.02579 -0.0184847)
(30.7841 0.240301 -0.0620879)
(29.8437 -1.282 -0.0916628)
(28.4618 -1.90817 -0.149592)
(27.6217 -2.19201 -0.207596)
(27.0324 -2.35308 -0.187842)
(26.365 -2.26219 -0.117174)
(25.8667 -2.05541 -0.0875222)
(25.4412 -1.71096 -0.0649639)
(25.3273 -1.59242 -0.0556586)
(25.0592 -1.47748 -0.0555545)
(23.3632 0.140618 0.000161775)
(23.3845 0.420197 0.00107643)
(23.4181 0.737311 0.000833803)
(23.48 1.15065 0.00162401)
(23.6256 1.71113 0.00501833)
(23.9637 2.46612 0.00748265)
(24.6717 3.3786 0.0161303)
(26.1813 4.3355 0.0158605)
(28.2587 3.81458 -0.00541856)
(29.8084 2.35665 -0.03118)
(30.2799 0.399875 -0.0442397)
(29.5785 -1.23809 -0.0706329)
(28.5945 -1.79766 -0.101636)
(27.7962 -1.99793 -0.147889)
(27.2421 -2.09038 -0.147849)
(26.63 -2.02189 -0.105836)
(26.1506 -1.86197 -0.0825989)
(25.7007 -1.59425 -0.0666656)
(25.5487 -1.48491 -0.0590779)
(25.2209 -1.38425 -0.0560481)
(23.5852 0.13459 0.000147392)
(23.615 0.406568 0.000932916)
(23.6753 0.71299 0.000834577)
(23.7848 1.09919 0.00149877)
(23.992 1.60079 0.00384038)
(24.392 2.23452 0.00331231)
(25.108 2.93358 0.00853048)
(26.3997 3.54961 0.00510435)
(28.0652 3.21241 -0.0135885)
(29.388 2.02407 -0.0314132)
(29.8496 0.495821 -0.0451885)
(29.4229 -0.792071 -0.0557191)
(28.6579 -1.35066 -0.0830645)
(27.9204 -1.57728 -0.111786)
(27.3849 -1.70374 -0.109391)
(26.8127 -1.71164 -0.0835114)
(26.3611 -1.62199 -0.0674971)
(25.9056 -1.43697 -0.0566018)
(25.7261 -1.35039 -0.0519385)
(25.3546 -1.27033 -0.0483252)
(23.7857 0.126848 0.000106338)
(23.8239 0.385133 0.000826506)
(23.9064 0.674153 0.000957942)
(24.0528 1.02766 0.00189369)
(24.3046 1.46835 0.0036265)
(24.7367 1.99638 0.00496329)
(25.4405 2.53308 0.00394443)
(26.5509 2.94532 7.24474e-05)
(27.9137 2.68981 -0.0142678)
(29.03 1.74235 -0.0277821)
(29.4668 0.534565 -0.0412396)
(29.2099 -0.546585 -0.0463421)
(28.6086 -1.12238 -0.0607855)
(27.9588 -1.38394 -0.0785744)
(27.4611 -1.51369 -0.0796745)
(26.9382 -1.53864 -0.0663244)
(26.5142 -1.47557 -0.0559614)
(26.066 -1.32946 -0.0473696)
(25.8649 -1.25183 -0.043251)
(25.459 -1.1769 -0.0391634)
(23.9684 0.117573 9.0934e-05)
(24.0141 0.357644 0.000584763)
(24.1147 0.623965 0.00109347)
(24.289 0.941075 0.00219464)
(24.5718 1.32212 0.00503706)
(25.0192 1.75782 0.00553585)
(25.6956 2.17247 0.00439641)
(26.665 2.44609 0.000796064)
(27.7976 2.23825 -0.0101446)
(28.7427 1.48433 -0.0219674)
(29.1523 0.513327 -0.0319019)
(29.0097 -0.376 -0.0348764)
(28.5464 -0.901708 -0.0443631)
(27.9921 -1.14897 -0.0531552)
(27.5291 -1.26754 -0.0538477)
(27.0449 -1.3028 -0.0459994)
(26.6443 -1.26676 -0.0388799)
(26.2042 -1.16413 -0.0326095)
(25.9884 -1.10438 -0.0298873)
(25.5568 -1.04582 -0.0274919)
(24.1359 0.106874 7.17267e-05)
(24.1882 0.325062 0.000445828)
(24.3029 0.564899 0.000908483)
(24.4979 0.843735 0.00206914)
(24.8009 1.16835 0.00396827)
(25.2531 1.5228 0.00576892)
(25.8958 1.84192 0.00388903)
(26.7541 2.01997 0.00029894)
(27.7122 1.84418 -0.00501884)
(28.52 1.24945 -0.0137959)
(28.9029 0.464357 -0.0209987)
(28.8392 -0.245887 -0.0231288)
(28.4805 -0.717135 -0.0322405)
(28.0096 -0.955836 -0.038213)
(27.5788 -1.07535 -0.0390692)
(27.1267 -1.12191 -0.0353891)
(26.7469 -1.1069 -0.0313044)
(26.3179 -1.03528 -0.0271241)
(26.0921 -0.987911 -0.0253951)
(25.6417 -0.937744 -0.0238503)
(24.2906 0.0948866 5.22925e-05)
(24.3481 0.288333 0.000331147)
(24.4737 0.499119 0.000698621)
(24.6836 0.739233 0.00155799)
(24.999 1.01115 0.00318104)
(25.4487 1.2966 0.00377054)
(26.057 1.54159 0.0029294)
(26.8256 1.65971 0.000857459)
(27.6506 1.51317 -0.00238064)
(28.3535 1.04362 -0.00835296)
(28.7095 0.415556 -0.0125632)
(28.6967 -0.158093 -0.0186144)
(28.4224 -0.565928 -0.0295242)
(28.0222 -0.789232 -0.0321398)
(27.6222 -0.899793 -0.0286856)
(27.1996 -0.945813 -0.0265436)
(26.8369 -0.941128 -0.0242185)
(26.4183 -0.890255 -0.0212365)
(26.1862 -0.852477 -0.0198996)
(25.7206 -0.811044 -0.0186617)
(24.4342 0.081833 3.54758e-05)
(24.4958 0.248391 0.000241472)
(24.6297 0.428416 0.000490678)
(24.85 0.630015 0.00115732)
(25.1721 0.85294 0.00206486)
(25.6154 1.07929 0.00251497)
(26.1919 1.26442 0.00196979)
(26.8883 1.34244 0.000434375)
(27.6125 1.21834 -0.00183002)
(28.237 0.847272 -0.00587314)
(28.5644 0.358127 -0.00837444)
(28.5832 -0.108044 -0.0134559)
(28.3761 -0.44153 -0.0199618)
(28.0345 -0.637805 -0.0196553)
(27.6627 -0.735558 -0.0184607)
(27.2629 -0.779231 -0.0176958)
(26.9145 -0.782776 -0.0168078)
(26.5058 -0.749722 -0.0150793)
(26.2701 -0.721812 -0.0143367)
(25.7948 -0.689636 -0.0137554)
(24.5682 0.0679401 2.1739e-05)
(24.6329 0.206012 0.000162702)
(24.7728 0.354198 0.000324725)
(25.0002 0.517756 0.000758569)
(25.3251 0.695663 0.00153956)
(25.7602 0.871561 0.00138503)
(26.3098 1.00902 0.000622493)
(26.9481 1.06148 -0.000611432)
(27.6009 0.959139 -0.00225471)
(28.1621 0.673462 -0.00485931)
(28.4677 0.288749 -0.00630219)
(28.5069 -0.0708131 -0.00915463)
(28.3454 -0.338141 -0.013075)
(28.0509 -0.502093 -0.0135885)
(27.7045 -0.5879 -0.0143585)
(27.3271 -0.62718 -0.0134546)
(26.99 -0.634673 -0.0126181)
(26.5902 -0.612958 -0.0111684)
(26.3527 -0.591944 -0.0105459)
(25.8703 -0.566332 -0.0101337)
(24.6939 0.0534134 1.09281e-05)
(24.7609 0.161837 0.000100184)
(24.9051 0.277503 0.000183388)
(25.1371 0.403757 0.000494958)
(25.4631 0.53839 0.000669697)
(25.8897 0.668561 0.000527544)
(26.42 0.767278 -0.00037871)
(27.0043 0.80304 -0.00130343)
(27.6462 0.715713 -0.00264458)
(28.0886 0.51796 -0.0040618)
(28.4763 0.242337 -0.00527361)
(28.476 -0.0466907 -0.00728273)
(28.3411 -0.252127 -0.00857067)
(28.0774 -0.382235 -0.0105998)
(27.7546 -0.44778 -0.0115183)
(27.3939 -0.480229 -0.0106664)
(27.0657 -0.488696 -0.0100794)
(26.6734 -0.475218 -0.00903407)
(26.4352 -0.460307 -0.00854683)
(25.9481 -0.441504 -0.00827311)
(24.8121 0.0384296 3.93019e-06)
(24.8807 0.116383 4.90393e-05)
(25.0278 0.199168 9.13206e-05)
(25.2627 0.288826 0.000227493)
(25.5893 0.383161 0.000295897)
(26.0096 0.473187 5.40122e-05)
(26.5213 0.540606 -0.000587949)
(27.0793 0.560568 -0.00145472)
(27.6607 0.503622 -0.00200608)
(28.1122 0.358746 -0.00310407)
(28.4163 0.156052 -0.00391053)
(28.4674 -0.0217423 -0.00473633)
(28.3616 -0.169365 -0.005496)
(28.1232 -0.264223 -0.00676901)
(27.8172 -0.313972 -0.00739868)
(27.4694 -0.33944 -0.00684422)
(27.1476 -0.34742 -0.00657618)
(26.7612 -0.33991 -0.00590073)
(26.5226 -0.330143 -0.00554376)
(26.0325 -0.317287 -0.00536547)
(24.9237 0.0231481 -5.48899e-07)
(24.9933 0.0700932 1.61944e-05)
(25.1422 0.119803 2.57677e-05)
(25.3788 0.173386 6.68298e-05)
(25.7056 0.229273 7.116e-05)
(26.1215 0.282512 -0.000111501)
(26.6213 0.321136 -0.000526027)
(27.1591 0.333584 -0.00107745)
(27.7151 0.297316 -0.00146291)
(28.1468 0.217154 -0.00219194)
(28.4469 0.0873968 -0.00234549)
(28.4956 -0.00736739 -0.00286188)
(28.4044 -0.0955808 -0.00343194)
(28.1823 -0.153987 -0.00425981)
(27.8883 -0.184189 -0.00479963)
(27.5496 -0.200905 -0.00428011)
(27.2323 -0.206387 -0.0040179)
(26.8501 -0.202516 -0.00352262)
(26.6115 -0.196908 -0.00325653)