/*--------------------------------*- C++ -*----------------------------------*\
  =========                 |
  \\      /  F ield         | OpenFOAM: The Open Source CFD Toolbox
   \\    /   O peration     | Website:  https://openfoam.org
    \\  /    A nd           | Version:  10
     \\/     M anipulation  |
\*---------------------------------------------------------------------------*/
FoamFile
{
    format      ascii;
    class       surfaceScalarField;
    location    "0";
    object      phi;
}
// * * * * * * * * * * * * * * * * * * * * * * * * * * * * * * * * * * * * * //

dimensions      [0 3 -1 0 0 0 0];

internalField   nonuniform List<scalar> 
25241
(
-1.42239
1.35617
-1.61007e-05
0.0662415
-1.67506
1.75146
-0.00604033
-0.000151564
-0.070228
-0.0697893
-1.4922
1.52169
0.0402468
4.87092e-05
-0.412162
-1.1088
2.10851
4.56718
0.00268455
-0.691016
-0.412112
-0.691142
-1.12821
-1.10743
-1.1275
-1.80509
0.200513
-1.40475
3.00841
0.000916565
-26.224
22.9057
-86.0957
173.374
0.0300961
-28.8815
-26.2257
-28.8831
-3.45802
0.0959437
2.91755
0.451665
-8.06485
2.65584
7.75291
-2.33878
-0.00567225
0.290963
-7.86253
7.60019
-0.0270832
-0.00172851
-1.39417
-7.09362
6.2112
2.27598
0.000619189
2.92696
43.0094
0.0176278
-7.17946
-9.71158
-7.1754
-9.70979
-5.39092
-5.44498
-5.39139
-5.44717
3.28547
2.92637
3.28493
-22.4462
0.0224324
25.3448
0.00586533
296.043
0.158458
-278.972
3.7169
-279.045
3.66518
-3.18141
-8.62063
-3.18282
-8.61232
-0.699246
0.289673
-1.25066
0.0138317
2.78307
-0.70127
-0.594302
-0.542606
0.299461
0.204013
0.197288
-2.54421
8.59303
7.80589
-6.52797
0.0388776
-2.45617
-2.46175
-2.40801
33.1214
-5.47051
-0.0784932
1.91415
1.18056
1.93428
1.1877
-8.59444
-8.54269
-8.30142
-8.35372
30.7573
4.81077
-0.00913813
-0.381515
-0.837327
-0.381264
-0.837593
27.3876
18.6391
0.0052289
-3.28287
-4.35549
-3.28332
-4.35293
25.2075
45.1765
0.0130164
47.8868
101.37
0.0293963
-25.8163
-36.2222
-25.8169
-36.2235
162.075
0.000732429
-0.658755
3.24088
-0.0063598
0.62733
0.716657
-12.7467
12.3576
-1.32471
-0.00347586
0.319843
0.61889
0.0631708
3.73535
-11.5194
11.0205
-3.33444
0.0970994
37.0248
-15.9908
0.0289294
4.81614
5.30241
3.08135
5.92465
-10.3271
-10.3745
-9.60943
-9.86919
34.7544
-3.16746
-0.0343083
33.097
6.47473
-0.00659512
31.8705
19.8618
0.00376925
34.7125
42.3241
0.0104372
57.8975
78.1661
0.0190233
91.3443
-0.00763435
48.214
-0.0167453
-0.560589
0.517129
-0.519906
0.185307
45.7228
-0.0654005
0.903423
3.13872
-0.321206
3.47189
43.3207
0.107408
3.15644
3.10182
1.4673
4.51699
38.1226
0.024531
36.3428
-0.013959
35.3476
-0.00345651
35.6728
0.00323718
40.7202
0.00799186
60.1189
0.0127686
-0.00557229
-0.00090328
1.35291
-1.41769
0.00102143
0.0646678
0.00030391
-1.67281
1.74903
-0.00656022
-0.000128806
-0.0698361
-0.000163758
-0.0709118
-1.48432
1.51306
0.0420694
0.00026645
-0.00395766
-0.410312
-1.1018
2.1048
4.54497
0.0052988
-0.690088
-0.410228
-0.690183
-1.12439
-1.10078
-1.12333
-0.00240707
-1.8034
0.198014
-1.39741
3.0024
0.00279583
-26.2368
22.8619
-0.0415985
-86.0714
173.475
0.0442534
-28.8943
-26.2403
-28.8963
-0.00531565
-2.71521
0.0019572
2.94381
-0.22524
2.69155
-8.00062
-0.00168941
7.72888
-2.4238
0.00568112
0.295747
0.00282041
-7.85201
7.59194
-0.0379002
-0.000592332
-1.39268
-7.08852
-0.000810947
6.20976
2.27042
0.00182903
2.92475
42.9527
0.0240115
-7.16257
-9.69374
-7.15732
-9.68968
-5.38881
-5.44801
-5.38486
-5.44764
3.28335
2.92331
3.28217
-22.4215
-0.00913534
0.0151205
25.3287
0.0115644
296.605
0.151238
-279.087
3.60224
-279.172
3.58247
-3.17312
-8.60613
-3.16827
-8.60154
0.237887
-0.710615
0.00443775
-1.0832
-0.00479534
2.90849
0.216125
0.124054
0.126642
-0.708974
-0.517706
-0.592352
34.9841
-16.9431
0.0232445
-9.7266
-9.64138
-9.7963
-9.6102
6.21124
4.47745
5.79125
4.38299
0.109092
-0.140523
-0.0755529
-0.0457017
33.23
-4.92491
-0.000885178
2.02224
1.26254
2.03503
1.28163
30.8136
4.81064
0.0029058
-0.371828
-0.831928
-0.370978
-0.831586
27.426
18.6192
0.0102928
-3.27876
-4.34195
-3.27798
-4.33795
25.2256
45.1472
0.01883
47.9246
101.328
0.035235
-25.8071
-36.2146
-25.8038
-36.2069
162.416
0.021854
0.00141406
-0.314028
12.7572
0.801991
-0.00371815
-0.198092
-0.313825
-0.191259
0.394079
-12.6491
0.0111279
11.7788
-0.631004
-0.00698449
0.118203
0.523347
0.461589
40.3539
-14.5284
0.0101122
4.15067
5.31715
4.16423
5.28005
-11.2704
-10.9877
-11.4214
-10.9769
0.0463437
-0.0401092
-0.216158
0.118575
36.545
-13.1204
0.0150886
34.799
-3.21067
-0.00259298
33.1235
6.4772
0.00236941
31.8885
19.8497
0.00828858
34.7253
42.3055
0.0153873
57.9043
78.1432
0.0243833
91.5436
0.003748
47.6877
-0.00545674
-0.524762
0.210509
-0.532951
0.435034
44.9693
-0.00440469
0.250965
2.46623
1.32117
1.63623
41.7971
0.018478
38.0989
0.0142783
36.3627
-0.000821564
35.3659
0.00252746
35.6848
0.00705025
40.7283
0.0122617
60.1292
0.0171386
-0.000695286
-0.000498699
1.35001
-1.41439
0.000390869
0.0644804
-0.00026236
-1.67161
1.74814
-0.00698432
0.000325048
-0.0696033
-0.000509679
-0.0711869
-1.48215
1.51083
0.0424618
0.000554299
-0.00538898
-0.409483
-1.10024
2.10586
4.5382
0.00545082
-0.6899
-0.409315
-0.690039
-1.12263
-1.10017
-1.12234
-0.00286655
-1.8027
0.195451
-1.39177
2.99914
0.00275628
-26.2607
22.8091
-0.037713
-86.049
173.599
0.0271578
-28.9119
-26.2631
-28.9131
-0.000773733
-2.4644
0.000743144
2.92701
-0.462579
2.69089
-7.96096
-0.00304224
7.70212
-2.43142
0.00241673
0.296626
-0.000919844
-7.83414
7.57677
-0.0399296
0.00159774
-1.39093
-7.07599
-0.00227287
6.20033
2.26614
0.00272019
2.92343
42.8995
0.0218736
-7.14898
-9.68002
-7.14515
-9.67804
-5.38138
-5.44721
-5.37801
-5.44532
3.28074
2.92249
3.2801
-22.3965
-0.0110946
0.0115417
25.3091
0.010373
297.003
0.0845578
-279.245
3.57192
-279.248
3.58311
-3.16323
-8.58558
-3.1587
-8.57859
0.185291
-0.712661
0.00133412
-0.000492842
2.91329
-0.817855
0.185346
0.121061
0.120981
-0.712612
-0.641878
-0.641806
34.9144
-16.4167
0.00910828
-9.79522
-9.61067
-9.79078
-9.60305
5.73356
4.43151
5.7245
4.42654
33.232
-4.96701
0.00584581
2.04191
1.27946
2.04153
1.27982
30.8318
4.79556
0.00705778
-0.370769
-0.82904
-0.370656
-0.829016
27.4421
18.5971
0.0115945
-3.27445
-4.33177
-3.27308
-4.3294
25.2276
45.1145
0.0182546
47.9346
101.287
0.0293688
-25.7936
-36.2046
-25.789
-36.2013
162.709
0.0281183
-0.312615
0.00213749
12.7574
0.763342
-0.00104465
-0.181705
-0.312318
-0.181757
0.641262
-12.6355
0.00639607
11.9674
-1.82362
-0.00210851
0.600762
0.643324
0.602031
41.3499
-15.5164
0.00642005
4.2017
5.3106
4.18343
5.28715
-11.4165
-10.9904
-11.4145
-10.9913
36.4023
-11.4615
0.00756191
34.8086
-3.38071
0.00475805
33.1388
6.46154
0.006229
31.9
19.8342
0.00992018
34.7292
42.2852
0.015542
57.8963
78.1216
0.0230902
91.7377
0.0141395
47.8212
-0.00163899
-0.535963
0.492395
-0.537844
0.491098
45.3938
-0.00042185
1.40202
1.47971
1.4005
1.45891
41.6639
0.00646115
38.0849
0.00677025
36.3717
0.00439226
35.3792
0.00568628
35.6955
0.00866394
40.7364
0.0129303
60.1349
0.0172855
0.00601073
-0.000240597
1.34964
-1.41426
0.0002161
0.0646329
-0.000418304
-1.67136
1.74803
-0.00712985
0.000420519
-0.0695467
-0.000629612
-0.0711449
-1.48194
1.51088
0.0422068
0.000629167
-0.0050033
-0.408965
-1.10061
2.10936
4.53498
0.00453707
-0.689725
-0.408879
-0.689804
-1.12266
-1.10065
-1.12259
-0.00224035
-1.80229
0.193824
-1.38902
2.99772
0.00201001
-26.2739
22.7844
-0.0216438
-86.0492
173.666
0.0141937
-28.9223
-26.2752
-28.9228
-0.00037772
-2.46366
0.000329197
2.92708
-0.463375
2.68932
-7.95349
-0.00198256
7.69369
-2.42931
0.00176477
0.296264
-0.00182765
-7.82593
7.56906
-0.0394578
0.00188747
-1.38952
-7.06942
-0.00277538
6.19488
2.26413
0.00270067
2.92144
42.8672
0.0167594
-7.14194
-9.67231
-7.13991
-9.67179
-5.37704
-5.44541
-5.37584
-5.44432
3.28133
2.92104
3.28262
-22.3857
-0.00874088
0.0156714
25.2929
0.00726586
297.17
0.0392372
-279.305
3.59287
-279.314
3.61079
-3.15212
-8.57823
-3.15001
-8.57358
0.185245
-0.712665
-6.38526e-05
8.97895e-05
2.91349
-0.816854
0.185256
0.120825
0.120842
-0.712666
-0.641749
-0.641749
34.8801
-16.3985
0.00551873
-9.78868
-9.60073
-9.78756
-9.5971
5.72495
4.42455
5.72407
4.42252
33.2158
-4.97324
0.00582448
2.0413
1.27844
2.04043
1.27736
30.8244
4.7882
0.00727262
-0.370163
-0.82843
-0.369722
-0.828671
27.437
18.5826
0.0103917
-3.27095
-4.32746
-3.26983
-4.32582
25.2148
45.0929
0.0148155
47.9147
101.268
0.0205202
-25.7849
-36.1966
-25.7835
-36.1937
162.864
0.0206497
-0.312316
0.000619382
12.7513
0.763832
-0.000279536
-0.1822
-0.312136
-0.18226
0.644063
-12.6279
0.000759638
11.9669
-1.83346
-0.000163663
0.602877
0.644131
0.60277
41.2952
-15.4645
0.0035634
4.18789
5.29697
4.18627
5.29317
-11.4108
-10.987
-11.4089
-10.9853
36.3784
-11.4792
0.00498782
34.8062
-3.40158
0.00530112
33.1402
6.45381
0.0066451
31.9006
19.8229
0.00921264
34.726
42.27
0.0130995
57.8939
78.1048
0.0180156
91.8558
0.0134715
47.8109
6.34419e-05
-0.537138
0.490503
-0.536549
0.489392
45.3905
0.00115063
1.39897
1.46028
1.39891
1.4587
41.6573
0.00352696
38.0712
0.00465133
36.3754
0.00487654
35.3842
0.00610694
35.7003
0.00831166
40.7405
0.0115033
60.1344
0.0158369
0.00935255
-0.000174157
1.34963
-1.41428
0.000163058
0.0646603
-0.000401423
-1.67138
1.74811
-0.00718561
0.000388924
-0.0695286
-0.00058325
-0.0710873
-1.48208
1.51109
0.0420977
0.000558363
-0.00390419
-0.408643
-1.10103
2.11152
4.53361
0.00333282
-0.689615
-0.408611
-0.689662
-1.12297
-1.10108
-1.12295
-0.00148679
-1.80205
0.193013
-1.38778
2.99701
0.00129421
-26.2802
22.7751
-0.0109357
-86.0545
173.699
0.00711525
-28.9274
-26.2807
-28.9275
-0.000225263
-2.46378
0.000207489
2.9272
-0.463399
2.6884
-7.95166
-0.00151789
7.69158
-2.42817
0.00136363
0.296294
-0.00181314
-7.82339
7.56666
-0.0394517
0.00170359
-1.38851
-7.0674
-0.00253189
6.19333
2.26278
0.00233144
2.92144
42.8519
0.011591
-7.13837
-9.66946
-7.13753
-9.66937
-5.37582
-5.44453
-5.37538
-5.44378
3.28247
2.92125
3.28236
-22.3796
-0.00580388
0.0157053
25.2864
0.00469763
297.233
0.0187379
-279.344
3.62203
-279.347
3.63311
-3.1459
-8.56997
-3.14464
-8.57612
0.185311
-0.712714
-0.000148219
0.000136613
2.91344
-0.816825
0.185315
0.120835
0.12085
-0.712715
-0.641747
-0.641746
34.8656
-16.3895
0.00400888
-9.78722
-9.59614
-9.78692
-9.59492
5.72382
4.42162
5.72424
4.42097
33.2028
-4.97122
0.00484397
2.04074
1.27697
2.04065
1.27656
30.8145
4.78522
0.00615697
-0.369295
-0.828412
-0.36888
-0.829156
27.4303
18.5739
0.00817914
-3.26863
-4.32547
-3.26825
-4.32522
25.2052
45.0812
0.0106757
47.885
101.269
0.013299
-25.781
-36.1936
-25.7789
-36.1882
162.936
0.0120059
-0.312132
3.96223e-05
12.7489
0.763401
7.24712e-05
-0.182313
-0.31207
-0.18229
0.644125
-12.6253
-0.000159555
11.9641
-1.83268
0.000274121
0.602742
0.644159
0.60269
41.2785
-15.4506
0.00278394
4.18572
5.29231
4.18561
5.29172
-11.4081
-10.9843
-11.4072
-10.983
36.3677
-11.4774
0.0037534
34.8001
-3.40288
0.00455147
33.1354
6.45081
0.00574897
31.8953
19.8157
0.00747519
34.7193
42.2606
0.00970732
57.888
78.1064
0.0119751
91.9205
0.00902428
47.7993
0.000726911
-0.536573
0.488839
-0.53611
0.488429
45.3807
0.00147987
1.39864
1.45718
1.39869
1.4564
41.6524
0.00266756
38.0675
0.00356123
36.3744
0.00425074
35.3851
0.00533655
35.7016
0.0068613
40.7402
0.00887879
60.1412
0.011517
0.00770197
-0.000137518
1.34967
-1.41434
0.000126722
0.0646677
-0.000334786
-1.67145
1.74821
-0.00720985
0.000315663
-0.0695234
-0.000464675
-0.0710515
-1.48221
1.51126
0.0420319
0.000431053
-0.00274755
-0.408468
-1.10127
2.11264
4.53277
0.00225046
-0.689539
-0.40846
-0.689567
-1.12316
-1.1013
-1.12315
-0.000921456
-1.80194
0.192657
-1.38727
2.9967
0.000776308
-26.2832
22.7718
-0.00551576
-86.0587
173.715
0.00358267
-28.93
-26.2833
-28.93
-0.000171392
-2.46393
0.000165377
2.92734
-0.463399
2.68813
-7.951
-0.00121401
7.6912
-2.42818
0.0010685
0.296383
-0.00152463
-7.82274
7.56608
-0.0395427
0.00134901
-1.38811
-7.06686
-0.00201463
6.19318
2.2621
0.00171074
2.92145
42.8448
0.00743533
-7.13674
-9.6682
-7.1364
-9.6682
-5.37549
-5.4439
-5.37535
-5.44348
3.28225
2.9213
3.28214
-22.377
-0.00361809
0.0158754
25.2834
0.00275318
297.266
0.00868313
-279.363
3.6409
-279.365
3.6464
-3.14223
-8.57396
-3.1417
-8.57244
34.8587
-16.3852
0.00304287
-9.78669
-9.59458
-9.78649
-9.59388
5.72399
4.42068
5.72412
4.42034
33.1956
-4.96933
0.00377042
2.0406
1.27627
2.0408
1.27584
30.8079
4.7837
0.00473017
-0.36852
-0.828912
-0.368382
-0.828795
27.4255
18.5694
0.00587752
-3.26751
-4.32534
-3.26715
-4.32473
25.1999
45.0741
0.00691615
47.8647
101.273
0.00723558
-25.7758
-36.1909
-25.7749
-36.1904
162.973
0.00592518
0.644281
-12.6242
-0.00033684
11.9631
-1.83263
0.602578
0.644215
0.602645
41.2708
-15.445
4.18525
5.29099
5.2906
-11.4069
-10.9824
-10.9816
36.3611
-11.4746
0.00288486
34.795
-3.40223
0.00357266
33.1311
6.44893
0.00446623
31.8911
19.8114
0.00548474
34.7103
42.2582
0.00648782
57.8742
78.1146
0.00675692
91.9556
0.00548874
47.7914
-0.535953
0.488297
-0.535714
0.488082
45.3725
1.39858
1.45582
1.39869
1.45552
41.6478
38.0647
0.00276713
36.3721
0.00338285
35.3836
0.00417651
35.7
0.00505403
40.7381
0.00594914
60.143
0.00635033
0.00403276
-0.00010516
1.34972
-1.41439
9.52157e-05
0.0646738
-0.000254266
-1.67151
1.74828
-0.00722452
0.000234834
-0.0695201
-0.00033379
-0.0710333
-1.48229
1.51137
0.0419812
0.000304718
-0.0017916
-0.408386
-1.10139
2.1131
4.53234
0.00143113
-0.689503
-0.408388
-0.689515
-1.12325
-1.10141
-1.12324
-0.00053796
-1.80186
0.192536
-1.3871
2.99653
0.000441611
-26.2846
22.7706
-0.00275567
173.723
-28.9313
-26.2846
-28.9311
-0.00013021
-2.46399
0.000123816
2.92741
-0.463409
2.68815
-7.95094
-0.000929484
7.69111
-2.42818
0.000788342
0.296483
-0.00116227
-7.82256
7.56595
-0.0396905
0.000980176
-1.38775
-7.06682
-0.00143928
6.19314
2.26168
0.00118908
2.92127
42.8414
-7.13597
-9.6676
-7.13586
-9.6676
-5.37537
-5.44359
-5.37531
-5.44332
3.28189
2.92115
3.2818
-22.3756
-0.00207015
0.0155286
25.2819
0.00154614
297.275
-279.373
3.65117
-3.14009
-8.57098
-3.13976
-8.57023
34.8556
-16.3833
0.00219682
-9.78657
-9.59383
-9.78644
-9.59349
5.72415
4.42028
5.72412
4.42031
33.1916
-4.96835
0.00275372
2.04077
1.27594
2.0408
1.27588
30.8041
4.78285
0.00331489
-0.368411
-0.828603
-0.368181
-0.828749
27.4214
18.5674
0.00388704
-3.2667
-4.32491
-3.26644
-4.32466
25.1944
45.0711
47.8515
101.276
-25.7743
-36.1909
-25.7739
-36.1906
162.987
36.3576
-11.4735
0.00210147
34.7917
-3.40154
0.00260084
33.1283
6.44755
0.00315018
31.889
19.8085
0.0036533
34.7066
42.2561
57.8639
78.1214
91.971
38.0622
0.00202872
36.3703
0.00247841
35.3812
0.00298031
35.6965
0.00342238
40.7329
60.1377
-7.48168e-05
1.34974
-1.41442
6.60453e-05
0.0646802
-0.000177518
-1.67156
1.74832
-0.00723453
0.000160473
-0.0695175
-0.000223479
-0.0710178
-1.48233
1.51142
0.0419529
0.000200114
-9.5216e-05
-2.46404
8.74862e-05
2.92747
-0.463416
2.68823
-7.95096
-0.000660769
7.69101
-2.42816
0.000535462
0.296572
-0.000807775
-7.82255
7.56592
-0.0397883
0.000650623
-1.38755
-7.06682
-0.000962171
6.19314
2.26142
34.8544
-16.3826
-9.78639
-9.59358
5.72417
4.42021
5.72423
4.4201
33.1899
-4.96815
2.0409
1.27588
2.041
1.27593
30.802
4.78253
-0.368094
-0.828592
-0.368145
-0.82858
18.5662
-3.2662
-4.32487
36.3555
-11.473
34.7897
-3.40144
33.1263
6.44712
19.8073
38.0604
36.3691
35.3798
-4.79834e-05
1.34976
-1.41444
4.00648e-05
0.0646846
-6.54181e-05
2.9275
-0.463418
-10.1756
8.02504
7.26447
-4.96628
-0.0736604
-5.12964
1.93547
1.17291
1.91146
1.16897
-8.46723
-8.33492
-8.76638
-8.52462
10.8808
-2.74554
-0.096973
36.6715
-15.9716
3.0833
6.12497
4.74973
5.4784
-9.60704
-9.86914
-10.3255
-10.375
-3.1722
48.1277
-0.405868
0.0685728
-0.438648
0.399898
45.7235
-0.383435
3.47255
0.855832
3.13763
43.3167
1.46847
4.51937
3.15828
3.10556
38.1227
-0.429898
0.718944
0.737338
-1.02166
-0.00486758
-0.533231
0.00241451
0.702476
0.000580652
0.863862
-1.0361
3.44724
-0.00766478
-0.0464621
-0.290888
-0.287688
-0.0418066
3.20408
-0.4804
0.57623
-3.32735
0.0261145
0.310543
-0.0252479
0.0564556
-0.37895
3.25112
3.26927
-0.125578
0.0237013
-0.0318147
0.157298
-3.29287
-0.716427
0.00391721
-0.416755
0.791086
3.11995
0.00974687
2.77164
-1.19021
1.33991
-2.899
-0.0226111
-0.00473302
0.705858
0.00225152
-0.713638
-0.52297
-0.0322423
-0.315427
0.0255408
0.408374
3.18302
0.0326084
2.77121
-1.28061
-0.00113766
1.41193
-2.93401
0.709017
-0.466592
0.782316
-1.02656
0.00423346
-0.000450031
0.720599
-0.314727
0.000623248
0.597823
-1.00387
0.720592
-0.314694
0.597846
-1.00389
-0.000306019
1.17289e-05
0.720722
-0.314555
-1.30485e-05
0.597841
-1.00401
0.720728
-0.314566
0.597856
-1.00402
1.44958e-05
3.75817e-05
0.72073
-0.314546
-3.67278e-05
0.597898
-1.00408
0.720735
-0.314543
0.597899
-1.00409
3.6613e-05
0.720759
-0.314553
-3.54683e-05
0.597915
-1.00412
0.719035
-0.429939
-0.00458063
0.737447
-1.02182
0.327397
0.00606396
0.674975
-1.97756
2.46327
2.18331
0.022841
-0.64816
-0.703571
-0.702021
-0.647435
-0.00691016
-0.25989
0.00410943
0.288912
0.676254
0.0589405
-2.46487
2.3138
-0.0487069
2.91749
-2.77666
-2.68063
2.84854
-0.00694111
-0.0651117
-0.0326456
0.0230882
-0.0862989
-0.82327
0.394017
-0.729888
-0.0280089
1.20947
-3.16469
0.481649
0.0473998
-0.170152
0.119376
-0.048684
0.0544704
1.21185
-0.279423
0.0586816
-0.937838
0.0185746
1.84267
-4.15563
-0.0949458
2.92091
-0.0391417
-0.473863
1.00727
-0.665003
-0.00650323
-0.273471
-0.0626025
-0.805491
-0.222463
0.221238
0.031959
0.777828
3.02818
-0.0942034
0.0466868
-0.03359
0.0120552
0.0739494
-1.19041
-3.45369
-0.0214955
-0.869768
0.304751
-0.0519546
0.144682
0.00938706
-0.217538
2.81656
0.262953
0.287699
0.357017
0.322863
-0.618238
-1.33646
-0.710561
-0.751936
-0.728764
0.269985
-0.00797814
0.677986
-2.13913
2.33228
2.54016
-2.70768
0.0333113
-0.000346669
-0.18516
0.000433266
0.223491
0.682182
0.00230764
-1.99838
2.32402
-0.00619794
2.35678
-2.67852
-0.712795
-0.0049139
-0.464231
-3.2652
0.483499
3.17269
-0.0291469
2.79627
-1.13673
1.24604
-2.91042
0.0374457
-0.000364364
0.712669
0.000489188
-0.706545
-0.320976
-0.00362424
-3.25685
-0.627894
0.00705833
0.725951
3.15535
-0.00119993
2.80641
-0.953828
0.00182487
1.03058
-2.88378
0.223561
-0.000235222
0.682209
-1.99548
2.32349
2.35179
-2.67871
0.0012289
1.60164e-05
-0.185209
-2.3322e-05
0.223541
0.682396
0.000391623
-1.99215
2.32191
-0.000621515
2.34927
-2.67879
-0.706574
-0.000244568
-0.320902
-3.25502
0.738548
3.15527
-0.0011684
2.80479
-0.950655
1.02806
-2.88282
-0.000582667
8.13792e-06
0.712656
-9.15718e-06
-0.70658
-0.32063
-0.000158997
-3.25355
-0.644041
0.000281002
0.74216
3.15532
-7.43578e-05
2.80374
-0.947044
8.21821e-05
1.02538
-2.88209
0.223558
1.83396e-05
0.682414
-1.99235
2.32193
2.34937
-2.67886
0.000311777
3.64439e-05
-0.185312
-3.67436e-05
0.223579
0.682463
0.000282923
-1.99246
2.32163
-0.000254427
2.34958
-2.67877
-0.706588
1.06589e-05
-0.320645
-3.25357
0.742208
3.15536
-9.51375e-05
2.80346
-0.946841
1.02536
-2.88207
6.19088e-06
3.19741e-05
0.712707
-2.97848e-05
-0.706632
-0.320623
4.37857e-05
-3.25309
-0.644162
-1.63096e-05
0.742069
3.15516
0.000110278
2.80309
-0.946445
-2.05187e-05
1.02517
-2.88191
0.223579
3.41286e-05
0.682469
-1.99228
2.32172
2.34948
-2.67883
0.000207285
-0.185318
-3.44746e-05
0.223584
0.682496
0.000223762
-1.99246
2.32188
-0.000178395
2.34942
-2.67888
-0.706638
2.9168e-05
-0.320617
-3.25312
0.742162
3.15508
4.67581e-05
2.80306
-0.94632
1.02511
-2.88186
0.000122123
0.712736
-2.94402e-05
-0.706609
-0.32068
8.51588e-05
-3.25306
-0.644157
-9.61364e-05
0.742087
3.15513
0.000123131
2.80291
-0.946312
-6.80756e-05
1.02508
-2.88172
-1.99232
2.32194
2.34933
-2.67892
0.000188789
0.000173624
-1.9924
2.32189
-0.000147587
2.34946
-2.67897
-3.25298
0.74211
3.15515
7.57784e-05
2.80286
-0.946217
1.0251
-2.88176
0.000130504
-1.9923
2.32193
2.34938
-2.67899
0.000142523
0.000125267
-1.9924
2.32195
-0.000119064
2.34946
-2.67901
-1.99243
2.32198
2.34941
-2.67893
0.000101019
-2.46471
2.31604
2.91062
-2.77613
-0.0454599
-0.289739
0.00636924
0.327467
0.675119
-1.99695
2.57215
0.0328222
0.437203
0.596375
0.59505
0.462026
-0.698081
-0.646332
-0.642491
-0.702439
0.436754
-0.615852
3.51758
-0.0550515
3.21528
-0.419594
0.503972
-3.3333
0.0347481
0.699401
0.00412872
-0.716548
-0.4168
-0.743457
0.838735
3.1171
0.00317332
2.77216
-1.1905
1.34007
-2.89868
-0.0227915
-0.561575
0.612434
0.0183738
-0.0692802
0.000613145
-0.554333
0.706803
-0.00898935
0.891494
-1.03559
-0.0481116
-1.63973
-0.0783302
0.157383
0.801339
0.807452
-0.553883
0.701473
-0.000849093
0.889315
-1.03544
-0.00252107
-0.00658964
0.843664
0.848685
-1.68324
-1.72084
0.821049
0.849156
0.303211
-0.300142
-0.0154192
-0.808638
1.00822
-0.512837
0.017681
0.124542
-0.0122561
3.0552
-0.171476
0.0955197
0.110927
-0.233094
0.0147186
0.0553451
-0.0785976
-0.325244
0.335831
0.00268839
-0.822618
-0.38234
-0.019802
-0.0884809
0.0138227
0.0984469
-0.00832825
-0.0118097
-0.105708
0.0213041
0.538983
0.771566
-0.0502277
0.916378
0.915331
-1.82242
0.0343525
-0.00142246
0.718971
-0.321084
0.000473653
0.603034
-0.999972
-0.00883692
-1.7179
0.924491
0.926131
-0.174117
0.720051
-0.316382
-0.00121098
0.598775
-1.00266
0.00395032
-0.00135681
0.953618
0.953405
-1.41409
-0.495523
-1.50062
0.94975
0.949779
-0.4038
-0.000443308
0.954532
0.954578
-1.38906
-0.520921
-1.89272e-05
0.720667
-0.314658
9.55936e-05
0.597859
-1.00394
-9.04812e-05
-1.38246
0.95487
0.954859
-0.527471
0.720693
-0.314607
4.49891e-06
0.597851
-1.00396
2.83681e-05
-1.13312e-05
0.954968
0.954964
-1.38137
-0.528591
-1.38155
0.954919
0.95493
-0.528348
4.68837e-07
0.954988
0.954991
-1.3814
-0.528602
2.84587e-05
0.720736
-0.314584
-2.30957e-05
0.597891
-1.00405
1.30067e-05
-1.38143
0.955011
0.955006
-0.528612
0.720738
-0.314582
3.13078e-05
0.5979
-1.00406
-2.25509e-05
2.84083e-05
0.955042
0.955036
-1.38147
-0.528629
-1.38145
0.955022
0.955028
-0.528622
3.0636e-05
0.955049
0.955053
-1.38148
-0.528639
3.72681e-05
0.720782
-0.314598
-3.71797e-05
0.597919
-1.0041
3.3152e-05
-1.38149
0.955062
0.955059
-0.52864
0.720776
-0.314594
3.72011e-05
0.597926
-1.00411
-3.71912e-05
0.95503
0.955072
-1.38144
-0.528629
-1.3815
0.955065
0.955071
-0.528639
-0.000502685
0.701651
-0.554068
-0.0010167
0.889482
-1.03555
0.048238
-1.72138
0.821323
0.849321
0.706936
-0.554598
-0.00851732
0.891613
-1.03594
-0.56133
0.612286
0.0186144
-0.0695234
-1.63976
0.801329
0.807553
-0.0783317
0.157446
-0.449424
0.0207978
0.835779
-0.35381
-0.053343
-0.0223673
0.612837
-0.675691
0.0383348
-0.398566
-0.0732274
0.945962
-0.277347
-0.0303937
-2.67545
-0.0147691
-1.83462
10.8638
0.02922
1.31904
1.44946
0.467973
0.780139
-2.81708
-2.77226
-2.81515
0.0558232
10.6676
0.486799
1.46445
1.9056
0.938364
-4.65787
-0.706042
-0.468103
-0.463084
0.258897
0.110411
0.073673
0.000820394
-1.25695
2.90079
-7.11722
-0.0600389
2.34817
2.01082
2.03109
10.1749
-0.0138008
-0.010589
-0.0924801
0.0230684
-3.0086
-3.00466
-2.86135
-2.88418
11.6577
-0.0929668
1.32233
1.32564
0.168276
0.440977
-3.6223
-2.76727
-2.81702
-2.81497
0.0876012
10.6197
-6.11099
-1.16117
-0.0505358
0.260848
0.297468
0.190185
-3.26198
-3.23032
-3.10448
-3.12294
13.0261
-0.145474
0.170323
-0.591593
-0.509199
0.248848
0.0842814
12.3034
12.7885
0.787903
-0.326624
-0.198976
-0.173282
0.030879
-0.0349215
0.024616
-0.0244043
-0.552929
-0.0105332
12.6826
0.177886
0.139327
0.176107
12.6698
-0.0889355
0.0867543
12.2997
-6.82842
-0.00508105
2.17557
2.05514
2.27313
-2.94901
-2.93587
-2.85345
-2.85778
11.1288
-0.0521405
1.20821
0.972465
1.05857
0.855373
-2.76128
-2.79568
-2.76033
0.0637405
0.185129
0.120749
0.120953
-0.712697
-0.641962
-0.642035
0.00165905
2.91338
-0.81634
-6.91344
0.00445759
2.009
2.3364
2.32253
-2.92118
-2.92347
-2.85788
-2.85617
11.1917
-0.0078517
0.888443
0.891242
1.13537
1.15176
-2.80808
-2.76138
-2.76267
0.01182
-6.90916
0.00469736
2.34074
1.99424
2.3411
-2.92098
-2.92073
-2.85789
-2.85826
11.2031
0.00268537
0.892233
0.892469
1.16493
1.16438
-2.75881
-2.80418
-2.75815
0.00566992
0.1852
0.120846
0.120878
-0.712649
-0.641748
-0.641791
-0.000142089
2.91343
-0.816642
-6.89287
0.00135412
1.99248
2.33939
2.33955
-2.92105
-2.92114
-2.85832
-2.85762
11.2031
0.000399943
0.890611
0.890939
1.16314
1.16263
-2.80434
-2.75823
-2.75836
-3.39769e-05
-6.89617
0.00115014
2.34018
1.99241
2.34032
-2.92116
-2.92109
-2.85773
-2.85761
11.2006
0.000878785
0.891189
0.891427
1.1634
1.16325
-2.7579
-2.80334
-2.75779
0.000669427
0.185313
0.120849
0.12084
-0.712704
-0.641738
-0.641738
-0.000151981
2.9134
-0.816822
-6.89539
0.00102221
1.99238
2.34007
2.34019
-2.92105
-2.92112
-2.85773
-2.85724
11.1994
0.000797541
0.891199
0.891526
1.1632
1.16281
-2.80333
-2.7576
-2.75782
0.000791587
-6.89515
0.0008685
2.34018
1.9923
2.34025
-2.92113
-2.92114
-2.85743
-2.85722
11.1988
0.000672686
0.891117
0.891319
1.16305
1.16276
-2.75754
-2.80304
-2.75761
0.0006579
0.18532
0.120806
0.120841
-0.712733
-0.641762
-0.641762
-0.000146293
2.91349
-0.816766
-6.89525
0.000820855
1.99237
2.34013
2.3402
-2.92102
-2.9211
-2.85748
-2.85719
11.1985
0.000671193
0.891262
0.891481
1.16295
1.16264
-2.80306
-2.75762
-2.75766
0.000746015
-6.89483
0.00069233
2.3402
1.99241
2.34026
11.1983
-2.75764
-2.80293
-2.75771
0.000586915
-6.89498
0.00065484
1.99243
2.3402
2.34025
0.000628114
-6.89485
0.000532957
2.34025
1.99245
2.34025
0.000478952
-6.89484
0.000478239
1.99247
2.34026
2.34025
0.000466195
-6.89477
2.3402
1.99256
2.34021
-7.12497
2.01047
2.34603
2.03171
-3.00454
-2.86223
-0.010341
-0.00676166
-0.0896195
0.0256103
-0.0543683
10.6198
-6.1169
0.299809
0.204079
0.197412
-0.701366
-0.594443
-0.542676
0.0145669
-1.25167
2.7847
2.54168
-0.00963068
-2.67345
-1.85249
10.8661
1.32012
1.45076
0.470804
0.783381
-3.74054
-2.81777
-2.77241
-2.81548
10.6515
0.497813
1.46727
1.9162
0.950216
-4.66827
0.0058473
0.85515
-0.123755
-0.0153961
-0.781196
-0.409759
0.184606
0.804472
-1.05938
0.00311585
-0.471509
0.718431
0.00837366
0.858319
-0.0563739
-0.907956
0.0253398
-0.465434
0.273277
0.881219
-1.03676
0.000961442
-0.545205
0.70037
0.00115427
-0.00220683
0.829538
0.0353768
0.00294636
-0.0134065
-0.444486
0.262508
0.000827414
0.827762
0.0537831
0.00049723
-0.411679
0.226049
7.24095e-05
0.806663
-0.151459
-0.240296
-0.404906
0.802155
0.813818
0.812554
3.34267
-3.38244
0.0060578
3.33942
0.0113651
0.00939305
0.00989935
-0.00340209
0.00276314
0.00374045
0.87594
0.325848
0.00603046
3.47821
-0.127001
0.164933
0.169247
-0.132627
-0.164592
-0.505526
3.32917
-0.0759023
0.578542
-0.021056
-0.00715527
-0.0319362
-0.00131234
-0.00218614
3.37544
0.0692652
-0.103451
0.844547
-0.00219848
-0.942445
-0.195187
3.36495
-0.243927
0.0359993
0.0109162
-0.00519051
-3.31048
3.24396
0.293595
0.0309946
0.00527281
-0.059368
0.490376
0.369862
-3.32749
0.0365093
3.2447
-0.00469698
3.35198
-0.0651548
0.0503906
0.223863
0.238547
-0.827125
-0.847402
-0.840018
1.32448
2.82557
-0.0253242
0.00279133
-1.20661
0.719967
-0.0285569
-0.24589
0.022825
-2.78038
2.77029
0.452309
0.282645
0.280075
0.368484
-1.39656
0.00119256
0.704045
-0.00781413
-0.707991
-0.543766
-0.00720398
-0.000795465
-0.0304658
-0.0288864
0.0238063
0.694509
0.706992
0.687266
0.667703
0.00766378
2.78139
0.519049
0.306281
0.296089
0.48911
-1.55119
0.261691
0.135017
0.419486
0.278027
-1.08377
1.37874
2.8002
-0.00730719
-2.93618
-1.23266
0.702885
-0.000275071
-0.710966
-0.544334
0.012717
-1.37597
0.065983
-3.08964
0.691237
0.691222
0.661506
0.659705
0.00456847
-2.78668
-0.0150224
0.472045
0.289622
0.297024
0.491839
2.7538
-1.5072
-3.04809
0.693371
0.692305
0.661011
0.664813
2.7472
0.469074
0.301832
0.297146
0.475487
-1.47831
-0.0176737
-2.91494
-1.23734
-0.00328149
0.828468
-0.0450768
-0.00699185
-0.350019
0.233422
0.677616
-1.00856
0.00163517
0.714207
-0.380662
-0.0021245
0.82663
-0.150171
-0.00537701
-0.246256
0.151409
0.597829
-1.0037
0.000857768
0.720536
-0.314901
0.000350623
-0.000251751
0.822952
-0.225229
0.000603641
-0.000473635
-0.193881
0.1435
0.000485178
0.822835
-0.225142
0.00115077
-0.194344
0.143504
-0.000171673
0.823006
-0.225239
-0.000268101
-0.193416
0.143852
0.597857
-1.00388
-0.000187476
0.720622
-0.314711
-0.000106606
0.823039
-0.225252
-0.000196711
-0.193232
0.143855
0.597835
-1.00399
-1.5532e-05
0.720705
-0.314544
-9.48914e-06
8.71883e-06
0.823163
-0.225321
-1.64039e-06
3.12301e-07
-0.192983
0.143946
-1.11215e-05
0.823151
-0.225317
4.00471e-06
-0.192977
0.143943
9.59841e-06
0.823174
-0.225321
5.27855e-06
-0.192985
0.143948
0.597868
-1.00403
1.88302e-05
0.720731
-0.314574
1.20432e-05
0.823188
-0.225323
8.02961e-06
-0.192991
0.14395
0.597894
-1.00408
-3.45549e-05
0.720724
-0.314543
-2.19278e-05
2.21748e-05
0.82323
-0.225334
-2.51008e-05
2.73767e-05
-0.193001
0.143958
-2.13268e-05
0.823224
-0.225332
-2.43237e-05
-0.192999
0.143957
2.18804e-05
0.823236
-0.225337
2.60217e-05
-0.192999
0.143958
0.597905
-1.00409
3.71036e-05
0.720739
-0.314549
2.14436e-05
0.82324
-0.225336
2.75457e-05
-0.193002
0.143959
0.59792
-1.00412
-3.77918e-05
0.720755
-0.314554
-2.03816e-05
0.823264
-0.225348
-2.55669e-05
-0.193051
0.14396
-2.29007e-05
0.823259
-0.225338
-3.04366e-05
-0.193008
0.143966
0.804783
-1.05945
0.00288562
0.718746
-0.47155
0.00601541
0.855265
-0.123737
-0.0153474
-0.781181
-0.409807
0.184599
0.00866106
0.858578
-0.0564409
0.0252791
-0.908138
-0.465449
0.273515
0.00200257
-0.313541
-0.010657
0.341653
0.687345
0.732889
-0.187512
-0.718053
-0.00835736
0.179813
-0.0366302
0.811906
-0.185832
-0.745391
0.119143
0.0368041
-0.28671
0.00180115
0.310088
0.678296
0.0396554
-0.00541062
4.11033
-1.03878
-0.715905
-0.71703
-1.05532
-0.29789
-0.319657
3.91904
0.0614748
-0.0279305
0.168502
-0.140753
-1.04788
-0.710925
-0.714011
-0.900864
-0.603625
0.0124164
-0.752734
0.0167262
-0.672335
1.17002
-0.83943
0.361133
-0.026797
0.975988
0.240437
0.0118636
-0.835922
0.00585279
1.01101
0.285612
-0.0340195
-0.915016
1.19546
-0.298614
0.011736
-0.00521151
0.0556302
-0.017491
0.0291523
0.0289829
0.400364
0.638225
-0.0340598
0.0287467
-0.534712
-0.159286
-0.623412
-0.260527
1.07023
-0.146105
-0.0248596
-0.698223
0.736908
-0.227892
0.72191
-0.00101274
-0.190431
0.00261119
0.226467
0.681336
0.00106567
4.1074
-0.814472
-1.03755
-0.724344
-0.724622
-1.03349
0.220603
8.46818e-05
4.09626
-1.03452
-1.0303
-0.728789
-0.728528
-1.03114
0.457993
-0.185767
-0.000794652
0.223893
0.681706
2.61355e-05
-0.000488421
4.08676
-1.02978
-0.731271
-0.731396
-1.0298
-1.13389
0.569824
4.0884
-1.11302