/*--------------------------------*- C++ -*----------------------------------*\
  =========                 |
  \\      /  F ield         | OpenFOAM: The Open Source CFD Toolbox
   \\    /   O peration     | Website:  https://openfoam.org
    \\  /    A nd           | Version:  10
     \\/     M anipulation  |
\*---------------------------------------------------------------------------*/
FoamFile
{
    format      ascii;
    class       volVectorField;
    location    "0";
    object      U;
}
// * * * * * * * * * * * * * * * * * * * * * * * * * * * * * * * * * * * * * //

dimensions      [0 1 -1 0 0 0 0];

internalField   nonuniform List<vector> 
8643
(
(0.3491 -0.0323321 -2.2385e-06)
(0.343705 -0.0199429 -1.80579e-05)
(0.287168 -0.0109354 6.89319e-06)
(0.147479 0.0670747 7.93003e-05)
(-0.145262 0.180289 0.000101437)
(-2.4451 2.59392 0.000774589)
(0.336871 -0.212732 -0.00368793)
(0.347773 -0.0393933 -0.000143331)
(0.345022 -0.00425404 -4.30868e-05)
(0.295152 0.0329141 1.4681e-05)
(0.189759 0.17811 9.89475e-05)
(0.0658852 0.437027 0.000135013)
(1.69097 1.96482 0.00112938)
(0.489188 -0.0667214 0.00119042)
(0.4251 -0.121907 0.00273676)
(0.37257 -0.0264454 -0.000490534)
(0.35517 0.0161699 -5.59857e-05)
(0.323179 0.0782364 2.51574e-05)
(0.293423 0.204191 7.34343e-05)
(0.408605 0.516772 0.000179574)
(1.28662 1.06011 3.95598e-05)
(0.572837 0.0469781 0.00171007)
(0.54414 -0.0598517 -0.000132015)
(0.500456 -0.0673377 0.00220885)
(0.428905 -0.0637883 0.000108738)
(0.398223 -0.019597 -0.000217538)
(0.377952 0.0254761 -4.02427e-05)
(0.36193 0.0887988 2.1063e-05)
(0.371541 0.202137 6.20519e-05)
(0.517715 0.412062 0.000118245)
(1.0447 0.585496 -4.29947e-05)
(0.542672 -0.000547201 -9.40483e-05)
(0.52059 -0.0396227 -0.000552287)
(0.485203 -0.0499303 0.000724497)
(0.447434 -0.0464436 0.00017593)
(0.415783 -0.0107665 -9.43063e-05)
(0.39996 0.0316551 -2.12915e-05)
(0.396215 0.0907627 1.90694e-05)
(0.426625 0.183659 4.76931e-05)
(0.563804 0.314248 7.5413e-05)
(0.886107 0.333761 -3.12172e-05)
(0.348591 -0.0323921 0.000397975)
(0.343759 -0.0199967 -4.50077e-05)
(0.287188 -0.0109969 4.59614e-05)
(0.147506 0.0669296 0.000236959)
(-0.145053 0.179967 0.000504778)
(-2.44662 2.59488 0.00220577)
(0.341283 -0.199192 0.000917082)
(0.346636 -0.0406706 0.000169838)
(0.3452 -0.00448049 -7.60494e-05)
(0.295175 0.0327697 6.65868e-05)
(0.189708 0.177861 0.000250177)
(0.0656796 0.436634 0.000477201)
(1.69078 1.96772 0.00184667)
(0.487019 -0.0670615 -0.000609187)
(0.413176 -0.0891751 0.000855196)
(0.377729 -0.0266219 -0.000453004)
(0.355616 0.0161087 -3.82867e-05)
(0.323204 0.0781311 8.44999e-05)
(0.293368 0.20405 0.000182058)
(0.408526 0.51663 0.000381095)
(1.28748 1.06254 0.000162933)
(0.581495 0.0155465 -0.000121282)
(0.544743 -0.0604437 -0.000280437)
(0.481346 -0.0672399 0.000674374)
(0.436048 -0.0658249 7.30334e-05)
(0.398078 -0.0187115 -0.00022414)
(0.378139 0.0255466 -2.93074e-05)
(0.361969 0.0887564 6.85343e-05)
(0.371528 0.202062 0.00015096)
(0.517631 0.411955 0.000256575)
(1.04523 0.586826 -4.69339e-06)
(0.541624 -0.00015202 -0.000103127)
(0.520887 -0.0374667 -0.000244371)
(0.485684 -0.0521547 0.000846452)
(0.445971 -0.0460411 0.00013009)
(0.415539 -0.0102617 -0.000124647)
(0.400014 0.0317381 -1.04469e-05)
(0.396239 0.0907463 5.97418e-05)
(0.426624 0.183615 0.000119434)
(0.563793 0.314189 0.00017877)
(0.886501 0.334519 -3.15934e-05)
(0.347953 -0.0323427 0.000183997)
(0.343737 -0.0200237 6.16711e-05)
(0.287273 -0.011021 0.000105882)
(0.147701 0.0668655 0.000258337)
(-0.144588 0.179798 0.000527207)
(-2.44781 2.59658 0.00159975)
(0.341386 -0.192979 0.000197202)
(0.345942 -0.040909 0.000126137)
(0.345219 -0.00457938 5.99728e-05)
(0.295227 0.0326663 0.000120922)
(0.189736 0.177648 0.000274459)
(0.0656027 0.436223 0.000499564)
(1.69039 1.96963 0.00126443)
(0.489282 -0.0668122 -0.000170338)
(0.41318 -0.0890714 0.000198557)
(0.377563 -0.0267768 2.96991e-05)
(0.35562 0.0160543 5.74408e-05)
(0.323201 0.0780299 0.000126399)
(0.293317 0.203897 0.000214059)
(0.408427 0.516482 0.000364996)
(1.28803 1.06438 0.000257121)
(0.581197 0.0152988 -7.68235e-05)
(0.543424 -0.059787 -0.000189669)
(0.481205 -0.0667402 0.000109107)
(0.436228 -0.0657464 0.000136929)
(0.398009 -0.0187135 9.26276e-06)
(0.378152 0.025528 4.83392e-05)
(0.36197 0.0886946 0.000105042)
(0.371492 0.201972 0.000178954)
(0.517509 0.411859 0.000275903)
(1.04559 0.588055 9.84828e-05)
(0.541516 -0.000106677 -4.05832e-05)
(0.520717 -0.0373888 -2.58966e-05)
(0.48565 -0.0518745 0.000164525)
(0.445558 -0.0457876 0.000116534)
(0.41537 -0.0101433 1.35825e-05)
(0.399995 0.0317457 4.63981e-05)
(0.396242 0.0907098 9.09068e-05)
(0.426609 0.183562 0.000146431)
(0.56373 0.314143 0.000200092)
(0.886765 0.335311 3.56949e-05)
(0.347879 -0.0323476 9.44672e-05)
(0.343738 -0.0200309 8.7904e-05)
(0.287337 -0.0110371 0.000126084)
(0.147874 0.0668266 0.000226031)
(-0.144248 0.179722 0.000395979)
(-2.44841 2.5976 0.000853995)
(0.341423 -0.192975 9.19062e-05)
(0.345881 -0.0409519 8.67097e-05)
(0.345227 -0.00460404 8.66488e-05)
(0.295281 0.0326182 0.000129429)
(0.189803 0.177524 0.000228555)
(0.0656657 0.435957 0.000368772)
(1.69002 1.97024 0.000602475)
(0.489424 -0.066797 1.40828e-05)
(0.413148 -0.0891055 8.92029e-05)
(0.377523 -0.0268164 6.86335e-05)
(0.355623 0.0160151 8.35723e-05)
(0.323212 0.0779644 0.00012768)
(0.293295 0.20379 0.000191902)
(0.408362 0.51639 0.000275962)
(1.28822 1.06518 0.000243596)
(0.581184 0.0153127 -2.10824e-05)
(0.543505 -0.0598789 -2.05615e-05)
(0.481239 -0.0667363 5.82994e-05)
(0.436146 -0.0658077 7.61028e-05)
(0.39797 -0.0187429 5.91263e-05)
(0.378148 0.0254944 7.43616e-05)
(0.361969 0.088641 0.000110577)
(0.37147 0.201901 0.0001648)
(0.517483 0.411812 0.000233667)
(1.04589 0.588727 0.000143992)
(0.54153 -9.22312e-05 -8.87452e-06)
(0.520769 -0.0373677 5.12163e-06)
(0.485671 -0.0519012 5.80556e-05)
(0.445499 -0.0458363 6.67869e-05)
(0.415319 -0.0101511 5.36277e-05)
(0.399983 0.031722 6.79932e-05)
(0.396239 0.0906702 9.8139e-05)
(0.426594 0.183514 0.000141629)
(0.563695 0.314096 0.00018976)
(0.886953 0.335805 8.55094e-05)
(0.347882 -0.0323497 6.97533e-05)
(0.343757 -0.0200347 8.28215e-05)
(0.287391 -0.0110469 0.000114296)
(0.147972 0.0668078 0.000170848)
(-0.144079 0.179683 0.000258003)
(-2.44874 2.5981 0.000416139)
(0.341442 -0.192987 5.62628e-05)
(0.34588 -0.0409593 6.6768e-05)
(0.345247 -0.00461673 8.20464e-05)
(0.295324 0.0325925 0.000113665)
(0.189849 0.177465 0.000166459)
(0.0656908 0.435841 0.000240467)
(1.68983 1.9704 0.000253388)
(0.48946 -0.0668023 2.63542e-05)
(0.413154 -0.0891231 5.75028e-05)
(0.377524 -0.026835 6.23535e-05)
(0.355638 0.0159921 7.76328e-05)
(0.323234 0.077926 0.000108456)
(0.293293 0.203729 0.000147876)
(0.408283 0.516352 0.00018698)
(1.28823 1.0655 0.000139136)
(0.581187 0.0153159 8.69414e-07)
(0.543528 -0.0598836 1.01224e-05)
(0.481265 -0.0667373 3.67093e-05)
(0.436145 -0.0658346 5.21935e-05)
(0.397965 -0.0187646 5.80056e-05)
(0.378149 0.0254693 7.18223e-05)
(0.361971 0.0886042 9.65298e-05)
(0.37146 0.201858 0.000131302)
(0.51746 0.41183 0.000166971)
(1.04599 0.589049 0.000119086)
(0.541543 -8.8967e-05 4.76658e-06)
(0.520794 -0.0373688 1.57413e-05)
(0.485691 -0.0519113 3.62008e-05)
(0.445498 -0.0458616 4.78013e-05)
(0.415311 -0.0101709 5.36098e-05)
(0.399984 0.0316989 6.60828e-05)
(0.396239 0.0906403 8.76831e-05)
(0.426587 0.183484 0.000117166)
(0.563734 0.314108 0.000158575)
(0.887184 0.336065 9.34733e-05)
(0.347895 -0.0323511 5.46586e-05)
(0.343778 -0.0200371 6.81905e-05)
(0.287426 -0.0110526 8.96532e-05)
(0.148023 0.0667968 0.00011782)
(-0.144007 0.179666 0.000156589)
(-2.44893 2.59835 0.000198401)
(0.341459 -0.192998 4.37841e-05)
(0.345887 -0.0409652 5.28868e-05)
(0.345267 -0.00462298 6.70711e-05)
(0.295355 0.0325804 8.76872e-05)
(0.189871 0.177438 0.00011126)
(0.0657059 0.43579 0.000144781)
(1.68974 1.97044 0.000114958)
(0.413164 -0.0891319 4.22757e-05)
(0.377533 -0.0268437 5.03254e-05)
(0.355651 0.0159792 6.29044e-05)
(0.323251 0.0779043 8.16877e-05)
(0.293295 0.203698 0.000102028)
(0.408231 0.516333 0.000114105)
(1.28826 1.06565 8.22537e-05)
(0.54354 -0.0598874 1.48683e-05)
(0.481278 -0.0667417 2.88742e-05)
(0.436153 -0.065849 3.96705e-05)
(0.397967 -0.0187769 4.7921e-05)
(0.378155 0.025453 5.88866e-05)
(0.361975 0.0885813 7.49794e-05)
(0.371444 0.201835 9.28878e-05)
(0.517418 0.411858 0.000104581)
(1.04597 0.589222 7.54336e-05)
(0.541553 -8.96528e-05 9.11642e-06)
(0.520808 -0.0373725 1.70287e-05)
(0.485703 -0.0519185 2.77398e-05)
(0.445502 -0.0458756 3.7221e-05)
(0.415313 -0.0101844 4.48638e-05)
(0.399987 0.0316829 5.48713e-05)
(0.39624 0.0906206 6.88483e-05)
(0.426584 0.183471 8.4952e-05)
(0.563745 0.314151 0.000101854)
(0.887266 0.336215 6.59225e-05)
(0.347906 -0.0323525 4.14482e-05)
(0.343792 -0.0200387 5.13175e-05)
(0.287446 -0.0110567 6.38947e-05)
(0.148046 0.0667913 7.58525e-05)
(-0.143983 0.179656 8.94003e-05)
(-2.44903 2.59847 8.82519e-05)
(0.341469 -0.193004 3.30265e-05)
(0.345896 -0.0409685 3.97866e-05)
(0.34528 -0.00462643 4.98626e-05)
(0.295371 0.0325717 6.28503e-05)
(0.189877 0.177423 6.97337e-05)
(0.0656992 0.435764 8.109e-05)
(1.68968 1.97045 5.08098e-05)
(0.413171 -0.0891372 3.11588e-05)
(0.377541 -0.0268487 3.80272e-05)
(0.35566 0.0159714 4.64131e-05)
(0.323258 0.0778926 5.66628e-05)
(0.293286 0.203684 6.47046e-05)
(0.408188 0.516333 6.1613e-05)
(1.28824 1.0657 3.57252e-05)
(0.43616 -0.0658569 2.97386e-05)
(0.397972 -0.0187841 3.63785e-05)
(0.378162 0.0254429 4.4001e-05)
(0.361977 0.0885678 5.28548e-05)
(0.371432 0.201823 6.07335e-05)
(0.517377 0.411871 5.59933e-05)
(1.04595 0.589291 3.999e-05)
(0.445508 -0.0458844 2.81079e-05)
(0.415317 -0.0101934 3.42804e-05)
(0.399987 0.0316727 4.14533e-05)
(0.396237 0.0906085 4.89742e-05)
(0.426572 0.183463 5.59639e-05)
(0.563723 0.314176 5.37656e-05)
(0.887254 0.336281 3.45622e-05)
(0.347914 -0.0323535 2.91377e-05)
(0.343802 -0.0200398 3.55174e-05)
(0.287457 -0.0110589 4.23768e-05)
(0.341475 -0.193008 2.37536e-05)
(0.345903 -0.0409715 2.77548e-05)
(0.345288 -0.00462889 3.40281e-05)
(0.295379 0.0325672 4.18628e-05)
(0.413177 -0.0891403 2.14631e-05)
(0.377546 -0.0268529 2.61405e-05)
(0.355665 0.015967 3.09604e-05)
(0.32326 0.0778863 3.59265e-05)
(0.436165 -0.0658615 2.05391e-05)
(0.397976 -0.018789 2.50812e-05)
(0.378164 0.0254373 2.95742e-05)
(0.361976 0.0885609 3.38505e-05)
(0.445513 -0.0458904 1.92614e-05)
(0.41532 -0.0101994 2.40835e-05)
(0.399988 0.0316665 2.80335e-05)
(0.396235 0.0906022 3.17534e-05)
(0.347919 -0.0323541 1.8213e-05)
(0.341479 -0.193011 1.6307e-05)
(0.433362 -0.111489 0.000582575)
(0.372547 -0.0264541 0.000456831)
(0.498001 -0.0561669 -0.00122386)
(0.429041 -0.0635761 1.31223e-07)
(0.398268 -0.0196893 0.000205616)
(0.542519 -0.000399615 0.000117679)
(0.520586 -0.0396135 0.000561278)
(0.485185 -0.0499573 -0.000722312)
(0.447428 -0.0463744 -0.000145327)
(0.415799 -0.0107898 9.54738e-05)
(0.52789 -0.157883 -0.00206919)
(0.520845 -0.163397 0.000614189)
(0.603279 0.0461946 0.00309237)
(0.57918 -0.0409085 0.00240546)
(0.600793 0.0329749 -0.00768175)
(0.578496 -0.0430877 0.00507943)
(0.513117 -0.115257 0.00148497)
(0.558898 -0.0641414 0.000865155)
(0.50563 -0.0694013 -0.0020986)
(0.509079 -0.12311 -0.00250918)
(0.559664 -0.0709413 -0.00527227)
(0.50714 -0.0693954 0.00304001)
(0.521356 -0.159231 0.00197905)
(0.521283 -0.149906 -0.000348002)
(0.521317 -0.149907 -0.000216291)
(0.52142 -0.149894 -8.6081e-06)
(0.521426 -0.149898 2.43741e-05)
(0.521461 -0.149909 6.03479e-06)
(0.521465 -0.149909 3.98708e-05)
(0.521481 -0.149913 5.21891e-06)
(0.52793 -0.157895 0.00191248)
(0.467717 -0.0778988 0.00219251)
(0.476454 -0.173762 0.00127593)
(0.460201 -0.0789479 -0.00396658)
(0.484274 -0.16526 0.0101162)
(0.63888 -0.00778921 0.00665296)
(0.664741 0.0949869 -0.00704026)
(0.633202 0.0436816 -0.028385)
(0.68307 -0.0431671 0.0211491)
(0.547494 -0.107908 -0.0135872)
(0.528083 -0.117382 0.000408387)
(0.583479 -0.0659273 0.0134829)
(0.478982 -0.106088 -0.00318595)
(0.58607 -0.0974873 -0.00474498)
(0.534849 -0.098713 -0.00629023)
(0.463478 -0.0783435 -0.0053623)
(0.482605 -0.158624 0.00870903)
(0.469719 -0.0788658 -0.000283045)
(0.481296 -0.157561 0.000867449)
(0.511157 -0.121704 -0.00362221)
(0.558959 -0.0705628 -0.00553939)
(0.508609 -0.0681668 0.00636333)
(0.511361 -0.116521 -0.000317805)
(0.558535 -0.0693527 -0.000954373)
(0.509186 -0.0706598 -0.000270986)
(0.469751 -0.0788984 -0.000210516)
(0.481337 -0.157474 0.000288967)
(0.469882 -0.0788959 1.38654e-05)
(0.481382 -0.157372 0.000142231)
(0.511387 -0.116514 -0.000226928)
(0.558495 -0.0696725 -0.000420365)
(0.509095 -0.0704906 -0.000161376)
(0.511472 -0.116464 6.7537e-06)
(0.558519 -0.0697449 -4.26389e-05)
(0.509181 -0.0703327 -1.57411e-05)
(0.469889 -0.0789049 1.28437e-05)
(0.481404 -0.157388 2.23531e-05)
(0.46992 -0.0789128 2.60669e-05)
(0.481427 -0.157413 9.68195e-05)
(0.511479 -0.116468 6.69993e-06)
(0.558523 -0.0697476 -1.95602e-05)
(0.509188 -0.0703317 -4.64345e-06)
(0.51151 -0.116478 2.33308e-05)
(0.558537 -0.0697542 2.31557e-06)
(0.509209 -0.0703382 1.05533e-05)
(0.469924 -0.0789128 2.60558e-05)
(0.481437 -0.157404 1.27018e-06)
(0.46994 -0.0789158 2.44129e-05)
(0.48145 -0.157426 8.73413e-05)
(0.511514 -0.116477 2.24804e-05)
(0.558542 -0.0697526 1.12565e-05)
(0.50922 -0.0703312 2.27786e-05)
(0.511529 -0.116481 2.24287e-05)
(0.558551 -0.0697552 1.31767e-05)
(0.509227 -0.0703368 1.61718e-05)
(0.481458 -0.157419 -9.49314e-06)
(0.481463 -0.15743 7.99078e-05)
(0.558554 -0.0697568 1.75665e-05)
(0.509235 -0.0703308 2.45908e-05)
(0.481468 -0.157424 -1.90102e-05)
(0.481471 -0.15743 7.25611e-05)
(0.481474 -0.157426 -2.72528e-05)
(0.483913 -0.165229 -0.00986559)
(0.467785 -0.0779177 -0.00243508)
(0.492187 -0.170232 -0.00423044)
(0.607113 0.0364317 0.00874996)
(0.580324 -0.0423087 -0.00325384)
(0.513177 -0.115262 -0.00163735)
(0.559696 -0.0668271 -0.000398975)
(0.505652 -0.0694282 0.00203551)
(0.528899 -0.106215 -0.00393643)
(0.519439 -0.165774 0.00267862)
(0.529128 -0.0664798 -0.0252135)
(0.518526 -0.166269 -0.000228136)
(0.553907 -0.0640567 -0.00117104)
(0.526412 -0.0638612 -0.00772519)
(0.608296 0.0986477 -0.00513251)
(0.604572 0.104618 0.0085295)
(0.611668 -0.043404 0.0142341)
(0.577973 -0.0859926 0.0029069)
(0.601768 -0.0496959 -0.00115034)
(0.64555 -0.0542155 0.0343796)
(0.598441 -0.0692992 -0.0150619)
(0.519356 -0.150423 -0.000598876)
(0.613369 -0.0763129 -0.0161091)
(0.520608 -0.150076 -0.000806745)
(0.631774 -0.0795331 -0.00147531)
(0.62898 -0.0785345 -0.00353536)
(0.632568 -0.0798547 -0.000501633)
(0.521373 -0.149899 -5.22897e-05)
(0.632761 -0.0798977 -0.000148842)
(0.521389 -0.149891 1.2477e-05)
(0.632839 -0.0799382 -1.10074e-05)
(0.632813 -0.0799345 -3.29901e-05)
(0.632855 -0.0799402 -2.98102e-06)
(0.521441 -0.149904 -2.81206e-07)
(0.632868 -0.0799419 3.84907e-06)
(0.521447 -0.149905 3.47432e-05)
(0.632888 -0.0799442 1.43344e-05)
(0.632878 -0.0799431 1.00371e-05)
(0.632895 -0.0799449 1.65743e-05)
(0.52147 -0.149912 6.84619e-06)
(0.632901 -0.0799458 1.78737e-05)
(0.521473 -0.149911 3.92884e-05)
(0.632913 -0.0799473 1.79635e-05)
(0.632906 -0.0799464 1.97494e-05)
(0.518649 -0.166324 0.000275845)
(0.52653 -0.0638835 0.00776734)
(0.519569 -0.165814 -0.00262977)
(0.528879 -0.106169 0.00380158)
(0.529161 -0.0664863 0.025267)
(0.633546 -0.144377 0.00926881)
(0.641156 -0.101032 -0.034487)
(0.692971 -0.0953358 -0.0679932)
(0.606373 -0.119278 0.00146529)
(0.486936 -0.150796 -0.00171247)
(0.501032 -0.0697962 0.000701383)
(0.485356 -0.0974348 0.00167902)
(0.486148 -0.066653 -0.000575532)
(0.493585 -0.125511 0.00105011)
(0.501404 -0.0641174 -0.0016164)
(0.489394 -0.108728 0.00345375)
(0.564619 -0.0284781 -0.000188402)
(0.569569 0.0110237 -0.00292461)
(0.56208 -0.0205448 0.0020736)
(0.58267 0.0154513 7.60454e-06)
(0.573956 -0.0297956 -0.00141508)
(0.567532 0.011442 -0.0054272)
(0.560117 -0.0197383 0.00393694)
(0.482741 -0.120478 -0.00116328)
(0.49995 -0.0664431 -0.00332217)
(0.467196 -0.0955344 0.00362758)
(0.489205 -0.0667055 -0.000278707)
(0.482652 -0.119739 2.92763e-05)
(0.501027 -0.0651678 -0.00137325)
(0.467646 -0.09481 0.00172444)
(0.482651 -0.11951 0.000210924)
(0.501204 -0.0654263 -0.000118273)
(0.468217 -0.0947962 0.000400377)
(0.489411 -0.0667768 1.931e-05)
(0.482732 -0.119326 0.000139641)
(0.50138 -0.0652252 7.07336e-05)
(0.468342 -0.0945016 0.000131391)
(0.482764 -0.119391 5.74618e-05)
(0.501391 -0.0653098 2.92761e-05)
(0.468366 -0.0946494 1.24329e-05)
(0.489453 -0.066802 2.80642e-05)
(0.482782 -0.119398 5.03774e-05)
(0.501414 -0.0653043 3.8468e-05)
(0.46837 -0.094645 3.61293e-05)
(0.4828 -0.119402 4.27631e-05)
(0.501428 -0.0653039 3.36445e-05)
(0.468383 -0.0946473 3.02609e-05)
(0.489474 -0.0668046 2.66638e-05)
(0.482806 -0.11941 3.91579e-05)
(0.501438 -0.0653087 3.08336e-05)
(0.468389 -0.0946552 3.47482e-05)
(0.482818 -0.11941 3.41537e-05)
(0.501447 -0.0653059 2.90481e-05)
(0.468397 -0.0946534 2.71077e-05)
(0.482822 -0.119414 3.11747e-05)
(0.4684 -0.0946582 3.05197e-05)
(0.482829 -0.119414 2.64284e-05)
(0.468405 -0.0946574 2.18316e-05)
(0.482831 -0.119417 2.3729e-05)
(0.468407 -0.0946609 2.44745e-05)
(0.482837 -0.119417 1.88674e-05)
(0.468411 -0.0946601 1.45006e-05)
(0.493507 -0.125601 -0.00069502)
(0.489381 -0.108834 -0.0033862)
(0.489402 -0.0667912 -0.00138896)
(0.484747 -0.152928 0.000699553)
(0.501088 -0.0699455 -0.000773867)
(0.484926 -0.0978788 -0.00178811)
(0.432336 -0.179757 0.000742851)
(0.587105 -0.0504685 -0.00281542)
(0.536527 -0.160438 -0.00143818)
(0.431603 -0.186782 0.00297674)
(0.602788 -0.0350471 -0.00896071)
(0.519609 -0.165552 -0.000442983)
(0.423078 -0.192884 -0.00177266)
(0.576462 -0.062102 -0.00726485)
(0.420767 -0.195899 -0.0010658)
(0.578676 -0.0599006 -0.00110842)
(0.575599 0.0841287 -0.000640445)
(0.591518 0.0862328 0.000258301)
(0.620156 -0.0057348 -0.000872027)
(0.602249 0.0869875 0.00294426)
(0.608247 -0.0115654 -0.00427516)
(0.60291 0.0425805 -0.00759162)
(0.618591 0.0402981 0.00199825)
(0.606441 -0.00884166 0.00665961)
(0.615082 -0.0560624 -0.00407274)
(0.607403 -0.0359754 -0.00225449)
(0.584358 -0.0484283 -5.52157e-05)
(0.601824 -0.0365982 -0.00351328)
(0.580759 -0.0396852 0.00586951)
(0.589911 -0.0473889 -0.000641647)
(0.600641 -0.0298434 -0.0114479)
(0.592376 -0.0466427 -0.000433834)
(0.518984 -0.0799795 0.00245033)
(0.513676 -0.0962877 -0.0116736)
(0.512264 -0.078555 0.00219929)
(0.508732 -0.124267 0.00338458)
(0.499018 -0.0770161 -0.00443297)
(0.50942 -0.0844238 0.00284385)
(0.519714 -0.0737927 0.00230801)
(0.522022 -0.079763 -0.000445667)
(0.507317 -0.125308 0.000370341)
(0.501753 -0.0734695 0.00437692)
(0.510012 -0.0840589 -0.00187697)
(0.499034 -0.0758714 -0.00329264)
(0.50963 -0.0852802 0.000277979)
(0.521729 -0.0790979 -0.00231123)
(0.425096 -0.184686 -0.00292648)
(0.595456 -0.0571888 -0.00738684)
(0.519147 -0.154407 0.00174717)
(0.427468 -0.174232 -0.00290274)
(0.592252 -0.0647758 -0.00426797)
(0.521192 -0.149919 -0.000440787)
(0.427892 -0.165778 -0.00032301)
(0.602642 -0.066621 0.000343601)
(0.427826 -0.165772 -0.00044815)
(0.602502 -0.0667099 -0.00139475)
(0.42792 -0.165788 -0.000227039)
(0.602914 -0.0665643 -0.00102681)
(0.521338 -0.149906 -0.000169485)
(0.427939 -0.165793 -0.000149225)
(0.602956 -0.0665398 0.00057915)
(0.521412 -0.149891 2.50506e-05)
(0.428009 -0.165801 9.76364e-06)
(0.603096 -0.0665033 0.000754732)
(0.428001 -0.165798 1.10519e-05)
(0.60309 -0.0665014 -0.000754964)
(0.428014 -0.165805 9.82244e-06)
(0.603106 -0.0665037 -0.000752021)
(0.521431 -0.1499 -5.91555e-06)
(0.42802 -0.165807 1.16045e-05)
(0.60311 -0.0665057 0.000758983)
(0.521457 -0.149908 3.89707e-05)
(0.428044 -0.165817 2.36489e-05)
(0.603142 -0.0665092 0.000773557)
(0.42804 -0.165816 2.31945e-05)
(0.603139 -0.0665084 -0.000735745)
(0.428047 -0.165817 2.36236e-05)
(0.603147 -0.0665086 -0.000734269)
(0.521467 -0.149911 5.85127e-06)
(0.428049 -0.165819 2.32314e-05)
(0.603149 -0.0665099 0.00077397)
(0.521479 -0.149914 3.95822e-05)
(0.428062 -0.165822 2.26185e-05)
(0.603166 -0.0665085 0.000774391)
(0.428058 -0.165823 2.3209e-05)
(0.603163 -0.0665118 -0.00073331)
(0.536617 -0.160469 0.00136351)
(0.432377 -0.179782 -0.0009109)
(0.58713 -0.0504714 0.00269736)
(0.431742 -0.186831 -0.00308369)
(0.602819 -0.03508 0.00889639)
(0.46415 -0.0817807 0.00463309)
(0.539116 -0.0496714 -0.00359887)
(0.544074 -0.0809926 -0.0261614)
(0.45854 -0.079631 0.00136942)
(0.547995 -0.0317746 0.00113558)
(0.548802 -0.0292262 0.0013269)
(0.669435 0.0898021 -0.0198753)
(0.686258 0.0966837 -0.0570996)
(0.701223 0.0283207 -0.014923)
(0.652105 0.085946 -0.0850762)
(0.721126 0.0510501 -0.00815663)
(0.72008 -0.0482906 0.0441213)
(0.672715 0.00925173 -0.00248357)
(0.690613 -0.00526071 -0.0230479)
(0.535831 -0.081997 -0.0176577)
(0.548085 -0.150134 0.0253468)
(0.522382 -0.127199 0.0217836)
(0.510344 -0.110472 -0.00953385)
(0.537151 -0.143647 0.0465596)
(0.501738 -0.134905 -0.0151429)
(0.540033 -0.148591 0.0102803)
(0.468728 -0.0794827 -0.00132879)
(0.544952 -0.0374581 0.000229951)
(0.544325 -0.038834 8.09278e-05)
(0.469255 -0.078899 -0.000654517)
(0.54432 -0.0390567 -5.16977e-05)
(0.544207 -0.0390377 -8.19101e-06)
(0.508622 -0.0734452 0.0140098)
(0.512312 -0.082171 -0.00272805)
(0.510161 -0.117422 -0.00121145)
(0.519651 -0.0766982 -0.00310782)
(0.513202 -0.0790864 0.0112287)
(0.519615 -0.0754756 -0.00179314)
(0.514324 -0.0813887 -0.00155073)
(0.510998 -0.116908 -0.000841453)
(0.511237 -0.0803708 0.000778257)
(0.510804 -0.0802587 0.00349618)
(0.519465 -0.0771053 -0.000486647)
(0.514526 -0.0801245 -0.000344087)
(0.514542 -0.0804258 -0.000666298)
(0.519211 -0.0774597 -0.000254374)
(0.469823 -0.0789181 -1.91541e-05)
(0.544403 -0.039132 -4.15262e-05)
(0.544526 -0.0391538 3.0346e-05)
(0.469847 -0.0788953 1.27761e-05)
(0.544638 -0.039125 4.50211e-05)
(0.544585 -0.0391242 6.26283e-05)
(0.511344 -0.080354 0.000134243)
(0.51142 -0.116482 -3.00526e-05)
(0.511377 -0.0803182 -3.40745e-06)
(0.519109 -0.0774441 -5.54056e-05)
(0.514443 -0.0800429 -0.000173533)
(0.519124 -0.0774609 -0.000130649)
(0.514439 -0.0799987 -5.10598e-05)
(0.511446 -0.116465 -4.34521e-07)
(0.511455 -0.0803213 -1.14255e-05)
(0.511431 -0.0803216 -1.18566e-05)
(0.519129 -0.0774203 -1.61704e-05)
(0.514508 -0.0799362 3.34238e-06)
(0.514481 -0.0799433 2.7982e-06)
(0.519152 -0.0774198 -1.09127e-05)
(0.469903 -0.0789118 1.87646e-05)
(0.544651 -0.0391327 3.29638e-05)
(0.544668 -0.0391397 3.26444e-05)
(0.469909 -0.0789136 2.24842e-05)
(0.544693 -0.0391384 3.39941e-05)
(0.544676 -0.0391387 3.62291e-05)
(0.511468 -0.0803236 -5.35656e-06)
(0.511491 -0.116474 1.5939e-05)
(0.511478 -0.0803249 1.68092e-06)
(0.519176 -0.0774231 1.71141e-06)
(0.514514 -0.0799417 4.10482e-06)
(0.519164 -0.077423 -5.8776e-06)
(0.514522 -0.0799437 1.07834e-05)
(0.511498 -0.116474 1.8077e-05)
(0.511493 -0.0803272 1.20584e-05)
(0.511487 -0.0803259 7.19106e-06)
(0.519184 -0.0774237 8.27074e-06)
(0.514542 -0.0799471 1.97778e-05)
(0.514533 -0.0799439 1.63425e-05)
(0.519189 -0.0774263 1.28233e-05)
(0.469931 -0.0789153 2.28813e-05)
(0.544695 -0.0391368 3.33636e-05)
(0.544704 -0.0391393 3.05608e-05)
(0.469934 -0.0789172 2.45196e-05)
(0.544717 -0.0391375 2.95504e-05)
(0.544705 -0.0391389 3.19205e-05)
(0.511499 -0.0803275 1.60623e-05)
(0.511521 -0.11648 2.27562e-05)
(0.511504 -0.0803277 1.75687e-05)
(0.519201 -0.0774252 1.71006e-05)
(0.514549 -0.0799458 2.10738e-05)
(0.519195 -0.0774261 1.55186e-05)
(0.514553 -0.0799462 2.09874e-05)
(0.511523 -0.116478 2.24373e-05)
(0.511509 -0.080328 1.59789e-05)
(0.511508 -0.0803281 1.71834e-05)
(0.519205 -0.0774253 1.84636e-05)
(0.514562 -0.079948 2.13291e-05)
(0.514557 -0.0799464 2.15195e-05)
(0.519204 -0.0774271 1.79795e-05)
(0.458684 -0.0796913 -0.00132453)
(0.549068 -0.0293663 -0.00100964)
(0.46435 -0.0818374 -0.004622)
(0.539915 -0.0501665 0.00212625)
(0.544799 -0.0813632 0.0266761)
(0.60198 0.102297 0.00818881)
(0.605499 0.107548 -0.0106288)
(0.672081 0.0789163 0.0338792)
(0.732234 -0.0424211 -0.0557268)
(0.642694 -0.00835912 -0.00842533)
(0.631532 0.0413133 0.0208509)
(0.605933 -0.0517228 0.00337768)
(0.642926 -0.0628235 -0.00106767)
(0.615368 -0.0526534 -0.00204587)
(0.602173 -0.0506626 0.000204653)
(0.507432 -0.125359 -0.00032898)
(0.499307 -0.0758624 0.00334558)
(0.509715 -0.0853096 -0.000249639)
(0.527785 -0.117402 -0.000678083)
(0.570007 -0.0740477 -0.0115412)
(0.478989 -0.10607 0.00361805)
(0.534128 -0.0987454 0.00609906)
(0.547769 -0.108149 0.0134917)
(0.586133 -0.0984125 0.00755871)
(0.508871 -0.124325 -0.00336979)
(0.5136 -0.0962494 0.0114927)
(0.512288 -0.0785711 -0.00227666)
(0.499023 -0.077013 0.00448928)
(0.5196 -0.073791 -0.00237668)
(0.518929 -0.0799939 -0.00241448)
(0.509495 -0.0844602 -0.00285147)
(0.530786 -0.0401338 0.000695459)
(0.495434 -0.0815068 -0.0596595)
(0.532342 -0.0462732 0.00832622)
(0.532116 -0.163197 0.00322303)
(0.426568 -0.196384 0.00190592)
(0.571294 -0.0645243 -0.00368139)
(0.429642 -0.193745 0.00443861)
(0.586633 -0.0518311 0.00159236)
(0.518946 -0.166245 -0.000618244)
(0.421748 -0.196783 -0.000868322)
(0.578325 -0.0611796 -0.0030027)
(0.420371 -0.196776 -0.00096887)
(0.579514 -0.0595888 -0.00321979)
(0.562573 0.160628 0.0277472)
(0.632204 0.112271 -0.00357341)
(0.602902 0.0673452 -0.0125325)
(0.574829 0.0869045 0.00142831)
(0.616606 0.0974138 -0.00338925)
(0.562048 0.134292 0.0073219)
(0.581351 0.110555 0.00333273)
(0.607943 -0.0762869 0.00578495)
(0.660265 -0.0651189 0.0189219)
(0.652522 -0.0687242 0.00953561)
(0.599936 -0.0737885 0.00620087)
(0.627514 -0.0416708 0.152418)
(0.595014 -0.0803257 -0.00200537)
(0.627434 -0.0721991 -0.00178617)
(0.519104 -0.151477 0.000358275)
(0.426834 -0.166248 -0.0016777)
(0.593258 -0.0684282 -0.00217762)
(0.425287 -0.168338 -0.00220427)
(0.593662 -0.0673201 -0.0035508)
(0.520972 -0.149966 -0.000654943)
(0.427416 -0.165863 -0.00100298)
(0.601075 -0.0671704 -0.00283596)
(0.427675 -0.16578 -0.00065039)
(0.601412 -0.0669278 -0.000272583)
(0.521357 -0.149901 -7.05561e-05)
(0.42797 -0.165795 -3.43217e-05)
(0.603049 -0.0665059 0.000707504)
(0.427957 -0.165793 -8.57076e-05)
(0.603033 -0.0665154 -0.000861503)
(0.5214 -0.14989 -1.01781e-05)
(0.427982 -0.165795 -3.66042e-06)
(0.603066 -0.0665015 -0.000766867)
(0.427992 -0.165796 8.06902e-06)
(0.603074 -0.0665038 0.000751324)
(0.521437 -0.149902 2.92282e-05)
(0.428029 -0.165811 1.68945e-05)
(0.603122 -0.0665068 0.000765468)
(0.428024 -0.165809 1.41066e-05)
(0.603119 -0.0665058 -0.000746139)
(0.52145 -0.149906 3.98839e-06)
(0.428033 -0.165813 1.9549e-05)
(0.603129 -0.0665066 -0.000740415)
(0.428037 -0.165814 2.17379e-05)
(0.603132 -0.0665086 0.000770397)
(0.521468 -0.149911 3.92303e-05)
(0.428053 -0.16582 2.31934e-05)
(0.603154 -0.06651 0.000775038)
(0.428051 -0.165819 2.32294e-05)
(0.603153 -0.0665094 -0.00073374)
(0.521474 -0.149913 6.81032e-06)
(0.428055 -0.16582 2.34883e-05)
(0.603158 -0.0665094 -0.000733284)
(0.428057 -0.165822 2.43054e-05)
(0.603159 -0.0665105 0.000775442)
(0.519047 -0.166279 0.000668754)
(0.421863 -0.196846 0.000889684)
(0.578453 -0.0611878 0.00303056)
(0.420473 -0.196814 0.00101168)
(0.579631 -0.0596079 0.0032432)
(0.532234 -0.163245 -0.0032042)
(0.426708 -0.196422 -0.00190919)
(0.571395 -0.0645352 0.00370522)
(0.429795 -0.193806 -0.00448006)
(0.586707 -0.0518518 -0.00159531)
(0.530789 -0.0401284 -0.000797298)
(0.495378 -0.0815319 0.0596393)
(0.532344 -0.0462808 -0.00838466)
(0.40779 -0.140552 0.000334946)
(0.372563 -0.0922023 -0.000231869)
(0.338499 -0.215155 0.00457016)
(0.354753 -0.0924745 0.000149643)
(0.437563 -0.14134 -0.00415592)
(0.365086 -0.0873186 0.00087992)
(0.445536 -0.241545 0.00143096)
(0.438923 -0.237998 0.00354263)
(0.495 -0.196938 -0.00289401)
(0.458823 -0.221283 -0.00354308)
(0.549805 -0.0988042 -0.00640311)
(0.47492 -0.22247 0.00448958)
(0.556265 -0.0337107 -0.0441365)
(0.45778 -0.0830977 -0.001906)
(0.456873 -0.0837186 -0.00470636)
(0.464276 -0.00697635 -0.00442465)
(0.465277 -0.00717358 -0.00152682)
(0.516765 -0.0034237 -0.00319028)
(0.573874 -0.0220902 -0.00121338)
(0.57444 -0.0211634 -0.000746452)
(0.517499 -0.00402107 -0.00134515)
(0.54747 -0.150042 -0.0262379)
(0.521821 -0.127458 -0.0218474)
(0.509948 -0.110605 0.00915322)
(0.53874 -0.148426 -0.0116792)
(0.534793 -0.0814746 0.017239)
(0.535847 -0.143551 -0.046594)
(0.501146 -0.135412 0.015003)
(0.352564 -0.0937184 -0.000131057)
(0.411832 -0.145348 0.000396485)
(0.371913 -0.087034 -0.00130198)
(0.339761 -0.207769 0.00130904)
(0.351649 -0.0959126 0.000887698)
(0.408149 -0.140315 -4.11091e-05)
(0.372234 -0.0919299 0.000723413)
(0.321521 -0.0833029 6.58648e-06)
(0.432979 -0.236239 0.00210126)
(0.429995 -0.235213 -0.0120992)
(0.474814 -0.198402 0.0021228)
(0.548604 -0.0969817 0.00326749)
(0.479935 -0.196169 0.00351262)
(0.476036 -0.225834 -0.00506371)
(0.555196 -0.033086 0.0452081)
(0.347473 -0.224247 0.00495271)
(0.393243 -0.199033 0.00503623)
(0.407037 -0.202946 0.00441466)
(0.362353 -0.143209 -0.00145111)
(0.360775 -0.145956 0.00128471)
(0.36701 -0.145204 -0.000746701)
(0.361705 -0.144641 0.000986453)
(0.411948 -0.25006 -0.00175924)
(0.444539 -0.24265 -0.0109044)
(0.477464 -0.219722 0.000664715)
(0.407989 -0.247708 -0.00445264)
(0.485156 -0.217164 0.00926868)
(0.627179 -0.090371 -0.00262553)
(0.630894 -0.0918085 0.00116726)
(0.591735 -0.194181 0.0212778)
(0.55015 -0.1979 -0.02297)
(0.553689 -0.204385 -0.0598274)
(0.587172 -0.188021 -0.000546442)
(0.355409 -0.0249351 1.5537e-06)
(0.355632 -0.0249637 1.77582e-05)
(0.304177 -0.0279909 1.06773e-05)
(0.211511 -0.00177738 2.20367e-05)
(0.304291 -0.0280025 4.70517e-05)
(0.211585 -0.00181144 0.000113505)
(0.181707 0.0275758 3.19815e-05)
(-0.0456163 0.0781498 6.05911e-05)
(0.181773 0.0275858 0.000153224)
(-0.0454247 0.0781425 0.000323006)
(-0.203323 0.0889324 7.73965e-05)
(-1.10885 0.619288 0.000263537)
(-0.203152 0.0888842 0.000421456)
(-1.1082 0.619181 0.00103813)
(-1.96006 1.64663 0.000410094)
(-8.14672 -0.631485 0.000548914)
(-1.9598 1.6471 0.00132672)
(-8.14574 -0.63179 7.0332e-05)
(0.321408 -0.0835532 -6.84833e-05)
(0.320557 -0.0843027 0.00111417)
(0.350003 -0.0167171 -2.3647e-05)
(0.330758 -0.035659 -4.42631e-05)
(0.344289 -0.0169235 -6.16338e-05)
(0.348887 -0.0324191 0.000295122)
(0.349995 -0.0167655 -6.80715e-05)
(0.330637 -0.0360109 7.37533e-05)