/*--------------------------------*- C++ -*----------------------------------*\
  =========                 |
  \\      /  F ield         | OpenFOAM: The Open Source CFD Toolbox
   \\    /   O peration     | Website:  https://openfoam.org
    \\  /    A nd           | Version:  10
     \\/     M anipulation  |
\*---------------------------------------------------------------------------*/
FoamFile
{
    format      ascii;
    class       volScalarField;
    location    "2000";
    object      k;
}
// * * * * * * * * * * * * * * * * * * * * * * * * * * * * * * * * * * * * * //

dimensions      [0 2 -2 0 0 0 0];

internalField   nonuniform List<scalar> 
8649
(
2.31098
2.32557
2.12494
2.03955
2.01138
2.00594
1.94063
2.34318
2.16749
2.12428
2.03821
2.00965
2.0039
1.93923
2.3607
1.94333
2.17608
2.12767
2.03799
1.90195
2.00829
2.0021
1.93798
1.84436
2.36856
2.37675
1.9458
2.18583
2.13413
2.03889
1.90093
2.00737
2.00066
1.93699
1.84381
2.38846
2.65606
2.39091
1.94967
2.07022
2.19594
2.14264
2.04064
1.90041
1.9025
2.00693
1.9997
1.93627
1.84332
2.40555
1.92964
2.67053
2.40313
1.95464
1.57496
1.77645
2.07601
2.20596
2.15235
2.04328
1.90044
1.69314
1.90211
2.00698
1.99929
1.93589
1.84292
2.42005
1.93856
2.68147
2.41352
1.96027
1.57428
1.77719
2.08228
2.2156
2.16257
2.04674
1.90099
1.69296
1.90204
2.00751
1.99935
1.93588
1.84265
2.43227
1.94711
2.68983
2.42228
1.96641
1.5737
1.77838
2.08866
2.22464
2.17276
2.05095
1.90208
1.69287
1.90229
2.00848
1.9999
1.93625
1.84254
2.44252
1.95532
2.69629
2.42965
1.97295
1.5733
1.77996
2.09502
2.23297
2.18258
2.05574
1.90358
1.69291
1.90286
2.00983
2.0009
1.93697
1.84258
2.45111
2.70134
2.43584
1.9797
1.57308
1.78184
2.10123
2.24053
2.19178
2.06103
1.90569
1.69304
1.90368
2.0115
2.00236
1.93818
1.84287
2.70536
2.44104
1.98664
1.57312
1.78393
2.10716
2.24732
2.20027
2.06651
1.90744
1.69333
1.90483
2.01348
2.00407
1.93917
1.84305
2.70859
2.44549
1.99335
1.57314
1.78614
2.11278
2.25341
2.20785
2.07235
1.91206
1.69347
1.9059
2.01547
2.00646
1.94215
1.84431
2.71127
2.44922
2.0021
2.11788
2.25884
2.21591
2.08114
1.91086
1.90844
2.01928
2.01252
1.94292
1.84643
2.44569
2.26727
2.22088
2.2488
2.29333
2.2991
2.33065
2.33477
2.35625
2.3592
2.37399
2.37619
2.3867
2.3884
2.39598
2.39733
2.40272
2.4038
2.40763
2.40852
2.41129
2.41205
2.4141
2.41476
2.41631
2.41692
2.41812
2.41869
2.41961
2.42015
2.43296
2.42323
2.29656
2.32069
2.17544
2.21866
2.17487
2.07485
2.3236
2.34247
2.22433
2.17752
2.07414
2.26024
2.18779
2.0754
2.34469
2.35894
1.81475
2.26467
2.19173
2.07663
2.29162
2.20458
2.08302
2.36058
1.82866
2.37127
1.86289
2.29491
2.20907
2.08565
2.31492
2.22265
2.09534
2.3725
1.87554
2.38067
1.90595
2.31739
2.22721
2.09881
2.33235
2.24037
2.11025
2.38161
1.91704
2.388
1.94312
2.33422
2.24469
2.11411
2.34534
2.25681
2.12607
2.38873
1.95266
2.39381
1.97454
2.34673
2.26076
2.12998
2.3549
2.27156
2.14164
2.39437
1.98266
2.39847
2.00074
2.35594
2.27508
2.14538
2.36194
2.28451
2.15629
2.39891
2.00765
2.40227
2.02242
2.36274
2.2876
2.15977
2.3672
2.29572
2.16972
2.40262
2.02831
2.40541
2.04031
2.36781
2.2984
2.17289
2.37118
2.30531
2.18182
2.40568
2.04534
2.40805
2.05505
2.37167
2.30762
2.18466
2.37425
2.31345
2.19259
2.40826
2.05937
2.41028
2.06732
2.37465
2.31544
2.19513
2.37667
2.32026
2.20207
2.41046
2.07112
2.41213
2.07745
2.37702
2.32196
2.20435
2.37868
2.32597
2.20997
2.41221
2.08072
2.4057
2.08885
2.37906
2.32827
2.21303
2.36126
2.33527
2.21635
2.39951
2.36541
2.35518
2.35137
2.33245
2.21419
2.42309
2.26921
2.45241
2.2759
2.50042
2.47803
2.51987
2.3137
2.53683
2.31859
2.5644
2.55155
2.57555
2.34466
2.58533
2.34814
2.60144
2.59389
2.60806
2.3659
2.61396
2.36843
2.62393
2.61921
2.62815
2.38085
2.63198
2.38277
2.63859
2.63544
2.64143
2.39171
2.64405
2.39322
2.64862
2.64643
2.65061
2.39962
2.65245
2.40082
2.65572
2.65415
2.65716
2.40536
2.65851
2.40634
2.66093
2.65976
2.66201
2.40959
2.66304
2.41041
2.66491
2.664
2.66575
2.41278
2.66656
2.41349
2.66805
2.66732
2.66872
2.41526
2.66938
2.4159
2.6706
2.67
2.67116
2.41726
2.67171
2.41784
2.67272
2.67223
2.67318
2.41892
2.67365
2.41947
2.67475
2.67323
2.66027
2.41975
2.67809
2.41956
1.98778
2.62355
1.46234
2.32151
2.18726
2.18407
2.33874
2.1822
2.18163
2.35646
1.93595
2.18226
1.94385
1.95024
2.18389
1.94672
2.37294
1.96489
2.18651
1.95045
1.97975
2.1898
1.95521
2.38759
1.99442
2.19384
1.9606
2.00885
2.19826
1.96662
2.40028
2.02277
2.20321
1.97304
2.03621
2.20827
1.97978
2.41112
2.04896
2.21368
1.98673
2.06112
2.21903
1.99376
2.42026
2.07253
2.22458
2.00087
2.08333
2.22994
2.00788
2.42796
2.09338
2.2354
2.01487
2.10286
2.24062
2.02166
2.43441
2.11164
2.24585
2.02838
2.11987
2.25078
2.03478
2.43984
2.12745
2.25567
2.04105
2.13462
2.26035
2.04724
2.44444
2.14137
2.26496
2.05321
2.14747
2.26884
2.05817
2.44836
2.15291
2.27256
2.0632
2.15919
2.2796
2.07338
2.44839
2.16395
2.28719
2.08361
2.29867
2.72878
2.32134
2.25569
2.73414
2.34274
2.28798
2.75791
2.41477
2.75371
2.39909
2.76057
2.41835
2.30397
2.76445
2.43256
2.32706
2.78079
2.47272
2.77772
2.46152
2.78244
2.47236
2.33799
2.78529
2.48286
2.35393
2.79652
2.50658
2.79421
2.49767
2.79747
2.50425
2.3613
2.79964
2.51278
2.37247
2.8076
2.52776
2.80575
2.52016
2.80811
2.52445
2.37756
2.80987
2.53182
2.3857
2.81586
2.54184
2.81429
2.53506
2.81611
2.53795
2.38931
2.81762
2.54458
2.39535
2.82233
2.55129
2.82095
2.54506
2.82239
2.54698
2.39788
2.82372
2.5531
2.40237
2.82746
2.55755
2.82624
2.55166
2.82738
2.55294
2.4041
2.82857
2.55877
2.40747
2.83157
2.5618
2.83045
2.55611
2.83137
2.55699
2.40865
2.83247
2.56266
2.41126
2.83494
2.56483
2.8339
2.55924
2.83466
2.55988
2.41206
2.83569
2.56546
2.41415
2.83779
2.56709
2.8368
2.56155
2.83745
2.56203
2.4147
2.83844
2.56757
2.41642
2.84027
2.56884
2.83931
2.56332
2.83989
2.56371
2.4168
2.84084
2.56922
2.41827
2.84248
2.57025
2.84154
2.56474
2.84207
2.56505
2.41853
2.84299
2.57055
2.41983
2.84444
2.57104
2.84354
2.56562
2.84396
2.56523
2.41978
2.8447
2.56733
2.43211
2.87762
2.28899
2.86303
2.55748
2.99752
2.24264
2.40187
3.12889
2.20774
2.30755
2.53427
2.55853
2.31084
2.60166
2.58091
2.02513
2.19445
2.05593
1.99078
2.0683
1.97622
2.07485
2.20052
2.11081
2.08445
2.00585
2.09018
2.08217
2.02125
2.3323
2.62072
2.63841
2.33487
2.66976
2.65467
2.13497
2.24075
2.15715
2.05206
2.09863
2.03669
2.10746
2.24587
2.19586
2.17736
2.06715
2.12532
2.11636
2.08192
2.3513
2.6836
2.69647
2.35322
2.71929
2.70828
2.21265
2.27709
2.22799
2.11001
2.13424
2.0962
2.1431
2.28091
2.25463
2.2419
2.12322
2.16039
2.15182
2.1359
2.36554
2.72936
2.73877
2.36697
2.7555
2.74741
2.26615
2.30413
2.2767
2.1594
2.16874
2.14793
2.17689
2.30697
2.29508
2.28628
2.1702
2.19241
2.18477
2.18046
2.37627
2.76288
2.76983
2.37735
2.7822
2.77619
2.30305
2.32426
2.31038
2.19918
2.19975
2.19008
2.20683
2.3264
2.32319
2.31704
2.20769
2.22009
2.2136
2.21572
2.38455
2.78767
2.79285
2.38538
2.80212
2.7976
2.32875
2.33934
2.33391
2.23027
2.22616
2.22321
2.23196
2.34095
2.34292
2.33858
2.23683
2.24256
2.23738
2.24302
2.39107
2.80622
2.81015
2.39172
2.81719
2.81374
2.34684
2.35048
2.35049
2.25415
2.2474
2.24875
2.25203
2.35168
2.3569
2.3538
2.25915
2.26046
2.25634
2.26387
2.39626
2.8203
2.82332
2.39677
2.82875
2.82608
2.3597
2.35868
2.36231
2.27232
2.26429
2.26822
2.26796
2.35959
2.36691
2.36469
2.2761
2.27463
2.27136
2.27968
2.40047
2.83116
2.83352
2.40087
2.83777
2.83566
2.36894
2.36476
2.37082
2.28607
2.27765
2.28296
2.28055
2.36546
2.37416
2.37255
2.28893
2.28582
2.28324
2.29164
2.40391
2.83966
2.84153
2.40423
2.84492
2.84323
2.37564
2.36932
2.37702
2.29647
2.28821
2.29411
2.29051
2.36987
2.37947
2.37828
2.29862
2.29468
2.29263
2.30068
2.40678
2.84642
2.84793
2.40704
2.85067
2.8493
2.38055
2.37281
2.38157
2.30433
2.29657
2.30255
2.29839
2.37325
2.38338
2.3825
2.30596
2.30171
2.30007
2.30752
2.4092
2.85189
2.85313
2.40941
2.85539
2.85424
2.38418
2.37553
2.38494
2.3103
2.30321
2.30894
2.30467
2.3759
2.38629
2.38564
2.31154
2.30734
2.30602
2.31271
2.41131
2.85641
2.85753
2.41147
2.8599
2.85863
2.38687
2.37772
2.38743
2.31478
2.30855
2.31377
2.30974
2.37808
2.38834
2.38754
2.31553
2.3118
2.31083
2.31664
2.41248
2.86209
2.86448
2.41261
2.8447
2.86872
2.38398
2.37927
2.39062
2.32045
2.31277
2.31584
2.31325
2.37952
2.18313
2.34093
2.29484
2.29208
2.31388
2.2343
2.6636
2.17
2.18965
2.28339
2.21096
2.26284
2.74282
2.37028
2.73789
2.35063
2.28175
2.74617
2.37658
2.75073
2.39409
2.30928
2.77041
2.44787
2.76682
2.43485
2.32257
2.77253
2.44911
2.77585
2.46115
2.34177
2.78938
2.49176
2.78673
2.48187
2.35073
2.79064
2.49025
2.79312
2.49962
2.36402
2.8025
2.51831
2.80045
2.51014
2.37012
2.8032
2.51541
2.80515
2.52328
2.37961
2.81199
2.53549
2.8103
2.52834
2.38389
2.81236
2.53186
2.81399
2.53882
2.39091
2.81928
2.54705
2.81781
2.54057
2.39393
2.81943
2.54293
2.82085
2.54928
2.39914
2.82504
2.55474
2.82374
2.5487
2.40123
2.82502
2.55026
2.82629
2.55621
2.40512
2.82962
2.55987
2.82845
2.5541
2.40654
2.82948
2.55515
2.83063
2.56088
2.4095
2.83332
2.56344
2.83225
2.5578
2.41047
2.83309
2.55855
2.83416
2.56416
2.41279
2.83641
2.56604
2.8354
2.56048
2.41346
2.83611
2.56103
2.83712
2.56659
2.41535
2.83906
2.56802
2.83809
2.56249
2.4158
2.83871
2.56292
2.83968
2.56845
2.41739
2.84139
2.56959
2.84045
2.56407
2.4177
2.841
2.56441
2.84195
2.56993
2.41908
2.84349
2.57082
2.84256
2.56533
2.4193
2.84304
2.56555
2.844
2.57084
2.42012
2.84473
2.56761
2.84378
2.5624
2.42182
2.84093
2.55985
2.83644
2.55892
2.19492
2.52685
2.54871
2.11492
2.0954
2.47054
2.19845
2.21118
2.60791
2.62544
2.18614
2.51275
2.16953
2.52555
2.23102
2.21572
2.2466
2.2302
2.67138
2.6846
2.24414
2.56024
2.2309
2.57057
1.87457
1.94118
2.3631
2.011
1.88494
1.94123
2.25147
2.23501
2.26597
2.24946
2.71854
2.72814
2.28949
2.59828
2.27925
2.60646
2.01088
1.89544
1.94169
2.3837
2.01115
1.90637
1.94257
2.27036
2.25408
2.28318
2.26745
2.75254
2.75938
2.32426
2.62829
2.31645
2.63472
2.01168
1.91714
1.94376
2.40148
2.01255
1.92807
1.94531
2.24077
2.27341
2.66735
2.24703
2.28375
2.287
2.27165
2.29804
2.28352
2.77672
2.78158
2.35065
2.6518
2.34474
2.65681
2.01362
1.93863
1.94709
2.41661
2.01497
1.94914
1.94915
2.60758
1.8615
2.07265
1.93654
2.61688
1.86317
2.07677
2.25312
2.28687
2.67907
2.25894
2.29587
2.30128
2.28721
2.31065
2.29749
2.79394
2.79743
2.37061
2.67012
2.36614
2.67401
2.01647
1.95917
1.95135
2.42938
1.96902
1.95378
2.61948
1.86495
2.08078
1.94519
2.62663
1.86682
2.08469
2.26454
2.29857
2.688
2.26984
2.30632
2.31338
2.30068
2.32128
2.30945
2.80633
2.80885
2.38569
2.68436
2.38232
2.68737
1.97832
1.95626
2.4401
1.98735
1.95893
2.62861
1.86876
2.08846
1.95348
2.63417
1.87076
2.0921
2.27489
2.30864
2.69488
2.27963
2.31525
2.32357
2.31218
2.33021
2.31958
2.81536
2.81723
2.39711
2.69539
2.39456
2.69772
1.99586
1.96164
2.44907
2.00406
1.9645
2.6357
1.8728
2.09557
1.96144
2.64007
1.87488
2.09891
2.28412
2.31722
2.70025
2.28832
2.32285
2.33212
2.32191
2.3377
2.32811
2.82206
2.82347
2.40579
2.70394
2.40385
2.70574
2.01169
1.96726
2.01898
1.97015
2.64125
2.10208
2.64473
2.10511
2.29228
2.32451
2.7045
2.29596
2.32928
2.33929
2.33007
2.34399
2.33522
2.82713
2.82819
2.41239
2.71057
2.41092
2.71197
2.02597
1.97328
2.03266
1.97648
2.64567
2.10797
2.64849
2.1107
2.29942
2.33067
2.70791
2.30264
2.33473
2.3453
2.33686
2.34927
2.34109
2.83103
2.83186
2.41745
2.71572
2.41632
2.7168
2.03823
1.97839
2.04349
1.98056
2.64923
2.11329
2.65156
2.11567
2.30567
2.33592
2.71071
2.30845
2.33942
2.35037
2.34247
2.35378
2.34596
2.83404
2.83471
2.42131
2.71971
2.42042
2.72054
2.05225
1.98884
2.06031
1.99583
2.31107
2.34039
2.71069
2.31425
2.34589
2.35472
2.34725
2.36053
2.35358
2.83106
2.8326
2.43435
2.72124
2.42274
2.71987
2.66337
2.73375
2.68772
2.70141
2.58902
2.71569
2.38338
2.72297
2.38216
2.71018
2.2723
2.58928
2.56953
2.13388
2.4993
2.48521
2.15212
2.65715
2.64183
2.20193
2.54929
2.53773
2.21686
2.39696
2.38099
2.68786
1.80377
1.90436
2.15388
1.88687
2.13706
2.70524
2.70813
2.69683
2.25662
2.58958
2.58035
2.26832
2.41202
2.42611
2.7355
1.92135
2.16906
1.83942
2.72086
1.9372
2.18362
2.45176
2.43937
2.74859
1.85268
1.96677
2.20907
1.95253
2.19658
2.76092
2.74508
2.73697
2.29911
2.62145
2.61418
2.30809
2.46339
2.47425
2.78232
1.98052
2.22028
1.88522
2.77189
1.99326
2.23113
2.49395
2.48444
2.79155
1.89701
2.01686
2.25005
2.00554
2.24071
2.8004
2.77143
2.76567
2.33158
2.64645
2.64076
2.3384
2.50286
2.51115
2.81578
2.02779
2.2584
1.92536
2.8082
2.03785
2.26659
2.52618
2.51894
2.82242
1.93557
2.05643
2.28086
2.04755
2.27377
2.82894
2.79016
2.78606
2.3562
2.66596
2.66153
2.36136
2.53298
2.53928
2.84028
2.06505
2.28719
1.95961
2.83462
2.0729
2.29349
2.55074
2.54523
2.8452
1.96832
2.08745
2.30445
2.08054
2.29896
2.85013
2.80359
2.80064
2.37481
2.68112
2.67768
2.37871
2.55594
2.56074
2.85875
2.09422
2.30934
1.98834
2.8544
2.10033
2.31428
2.56953
2.56532
2.86249
1.99573
2.11169
2.32287
2.10632
2.31853
2.86634
2.81335
2.81119
2.38888
2.69288
2.69022
2.39183
2.57354
2.57723
2.87308
2.11701
2.32672
2.01219
2.86964
2.12176
2.33068
2.58403
2.58078
2.87601
2.01846
2.13064
2.33752
2.12648
2.33403
2.87909
2.82057
2.81896
2.39954
2.702
2.69993
2.40178
2.58715
2.59001
2.88448
2.13484
2.34059
2.03189
2.88169
2.13852
2.34381
2.59532
2.59279
2.88681
2.03723
2.1455
2.34935
2.14226
2.34649
2.88934
2.82599
2.82477
2.40764
2.70906
2.70745
2.40934
2.59779
2.60003
2.89373
2.14883
2.35183
2.04812
2.89142
2.1517
2.35448
2.60423
2.60224
2.89561
2.0527
2.15717
2.35903
2.15467
2.35666
2.89772
2.83016
2.82922
2.41381
2.71455
2.7133
2.41512
2.60621
2.60797
2.90133
2.15984
2.36103
2.06147
2.89941
2.16207
2.36321
2.61136
2.60979
2.90287
2.06551
2.16648
2.36707
2.16449
2.36505
2.90467
2.83339
2.83265
2.41854
2.71881
2.71784
2.41954
2.61302
2.61442
2.90784
2.16866
2.36875
2.07269
2.90609
2.17038
2.37063
2.90941
2.07619
2.17384
2.37398
2.17234
2.37221
2.91159
2.83633
2.83515
2.42203
2.72215
2.72131
2.42352
2.91783
2.17622
2.37656
2.08212
2.91699
2.17796
2.3783
2.91927
2.08745
2.19737
2.39274
2.19162
2.39701
2.89347
2.51777
2.79657
2.42396
2.71573
2.72588
2.38895
2.64472
2.67597
2.67212
2.6531
2.47516
2.49314
2.37152
2.36837
2.4815
2.49052
2.36986
2.60624
2.60945
2.69831
2.68746
2.61503
2.61207
2.69782
2.70824
2.62486
2.62233
2.71546
2.72517
2.61742
2.62016
2.71715
2.70711
2.62683
2.62917
2.73239
2.72297
2.63314
2.63096
2.72974
2.7389
2.64018
2.63828
2.74137
2.75011
2.63477
2.63681
2.74478
2.73585
2.64152
2.64331
2.75497
2.7464
2.64619
2.64452
2.75098
2.7594
2.65137
2.64988
2.75902
2.76719
2.64731
2.64889
2.76346
2.75517
2.65229
2.6537
2.77063
2.76256
2.65586
2.65452
2.76582
2.77381
2.65979
2.65857
2.77165
2.7795
2.65662
2.6579
2.77676
2.76885
2.66041
2.66159
2.78205
2.77427
2.66327
2.66214
2.77671
2.78444
2.6664
2.66535
2.78114
2.78878
2.66379
2.66489
2.78667
2.779
2.66684
2.66786
2.79077
2.78317
2.66925
2.66825
2.78508
2.79264
2.67186
2.67091
2.7886
2.79611
2.66961
2.67059
2.79442
2.78689
2.67217
2.6731
2.79772
2.79024
2.67429
2.67337
2.7918
2.79926
2.67655
2.67567
2.79471
2.80212
2.67455
2.67545
2.80072
2.79329
2.67676
2.67762
2.80347
2.79607
2.67865
2.6778
2.79738
2.80476
2.68063
2.6798
2.79985
2.8072
2.67882
2.67967
2.806
2.79864
2.68076
2.68158
2.80835
2.80102
2.68249
2.68168
2.80214
2.80946
2.68425
2.68347
2.80427
2.81157
2.68259
2.68339
2.81053
2.80323
2.68432
2.6851
2.81257
2.80529
2.68591
2.68514
2.80626
2.81353
2.6875
2.68675
2.80812
2.81537
2.68596
2.68673
2.81446
2.80721
2.68752
2.68826
2.81624
2.80901
2.689
2.68826
2.80987
2.81709
2.69043
2.68971
2.81151
2.81872
2.689
2.68973
2.81792
2.8107
2.69041
2.69112
2.8195
2.8123
2.69179
2.69108
2.81307
2.82026
2.69314
2.69242
2.81455
2.82172
2.69176
2.69248
2.821
2.81382
2.69306
2.69379
2.82243
2.81527
2.69441
2.69369
2.81598
2.82315
2.69544
2.6948
2.81744
2.8246
2.69427
2.69497
2.82386
2.81671
2.69517
2.69571
2.82541
2.81805
2.69564
2.6953
2.81883
2.82591
2.65583
2.67249
2.80769
2.82931
2.69433
2.68951
2.81795
2.81596
2.65485
2.67271
2.81721
2.8017
2.17009
2.17005
2.09043
2.10793
2.17121
2.08921
2.10601
2.59955
2.62101
2.59137
2.62932
2.17344
2.08854
2.10473
2.17151
2.17654
2.08849
2.10404
1.90143
2.35173
1.91164
1.83306
1.82865
1.89824
2.62772
2.65133
2.62136
2.65773
2.18034
2.08884
2.10389
2.18087
2.18454
2.08977
2.10431
1.9398
2.37375
1.9486
1.84937
1.90863
1.84465
1.91221
2.64939
2.67462
2.64453
2.67951
2.18904
2.09094
2.10512
2.19086
2.19378
2.0926
2.10644
1.97277
2.39293
1.98025
1.86608
1.92225
1.86131
1.92568
2.42504
2.63194
2.35185
2.66014
2.4213
2.63462
2.35621
2.66576
2.69237
2.66212
2.69607
2.19866
2.09438
2.10801
2.20097
2.20364
2.09657
2.11002
2.00071
2.40935
2.00699
1.88239
1.93515
1.87775
1.93837
2.43759
2.64129
2.36797
2.67362
2.43471
2.64322
2.37142
2.67795
2.70579
2.67525
2.70858
2.20863
2.09878
2.11216
2.21083
2.21361
2.10132
2.11466
2.02414
2.42326
2.02937
1.89786
1.94716
1.89343
1.95014
2.44736
2.64812
2.38081
2.68384
2.44511
2.64958
2.38355
2.68684
2.71591
2.68495
2.71801
2.21851
2.10379
2.1172
2.22019
2.22331
2.10654
2.12001
2.04363
2.43497
2.04795
1.91221
1.90805
2.455
2.65326
2.39105
2.69167
2.45323
2.65439
2.39321
2.69264
2.72355
2.69144
2.72513
2.22797
2.10915
2.12277
2.22888
2.23249
2.11198
2.12575
2.05973
2.44478
2.0633
1.92531
1.92143
2.46102
2.65723
2.39923
2.69773
2.45962
2.65813
2.40094
2.69654
2.72932
2.69572
2.73052
2.23683
2.11464
2.12862
2.23683
2.241
2.11747
2.13165
2.073
2.07593
1.93714
1.93355
2.46579
2.66037
2.40578
2.7025
2.46468
2.6611
2.40714
2.69933
2.73373
2.69874
2.73464
2.24495
2.12008
2.1345
2.24401
2.24873
2.12281
2.13746
2.08389
2.0863
1.94769
1.94438
2.46961
2.66289
2.41107
2.7063
2.46872
2.66349
2.41214
2.70142
2.73714
2.70099
2.73784
2.25229
2.12539
2.14028
2.25045
2.25566
2.12804
2.14315
2.09299
2.09499
1.95732
1.95424
2.4727
2.66498
2.41536
2.70937
2.47198
2.66548
2.41621
2.70307
2.73981
2.70273
2.74037
2.25881
2.13031
2.14563
2.25612
2.26175
2.13263
2.14817
2.47527
2.66675
2.41884
2.71191
2.47464
2.66703
2.41961
2.70414
2.742
2.70408
2.74258
2.2649
2.13595
2.1516
2.26273
2.26852
2.13983
2.15709
2.49989
2.50125
2.52578
2.51323
2.51451
2.52691
2.53755
2.5486
2.54951
2.53859
2.56869
2.55897
2.55979
2.56938
2.5778
2.58635
2.58684
2.57841
2.3532
2.35332
2.23269
2.23639
2.34525
2.36077
2.23882
2.60729
2.64446
2.63715
2.61453
2.60188
2.59436
2.59477
2.60215
2.36095
2.24136
2.37484
2.25041
2.36803
2.2445
2.36821
2.25875
2.26159
2.26022
2.24158
1.98156
1.9809
2.2415
2.35754
1.9308
1.9213
1.83649
1.90527
1.90164
1.84111
2.60892
2.61553
2.61558
2.60911
2.38183
2.38146
2.25592
2.25655
2.37525
2.38766
2.26162
2.63371
2.66936
2.66376
2.63929
2.62754
2.62173
2.62167
2.62732
2.38819
2.26117
2.39926
2.27212
2.39367
2.2668
2.39409
2.26313
2.26455
2.24149
1.98193
2.24142
1.98268
2.26761
2.26615
2.24156
1.98401
1.98316
2.24176
2.37887
1.96507
1.95694
1.85297
1.91903
1.91552
1.85774
2.63299
2.63809
2.63757
2.63264
2.40504
2.40465
2.27701
2.27491
2.39977
2.40967
2.28201
2.65395
2.68837
2.68411
2.65816
2.64737
2.64289
2.64221
2.6465
2.41009
2.27898
2.41897
2.29106
2.41451
2.28648
2.41474
2.26923
2.2707
2.24232
1.98458
2.24198
1.98551
2.32824
2.27381
2.27233
2.24267
1.98717
1.98617
2.24313
2.39735
1.9942
1.98734
1.8696
1.93213
1.9288
1.87433
2.40782
2.75414
2.66292
2.40442
2.75647
2.667
2.42842
2.66381
2.63925
2.36421
2.637
2.36036
2.43167
2.41107
2.76059
2.67445
2.75861
2.67087
2.41403
2.65157
2.6555
2.65424
2.65052
2.4233
2.42328
2.29521
2.29095
2.4192
2.42725
2.29946
2.66917
2.70277
2.69955
2.67231
2.66263
2.65918
2.65772
2.66093
2.42724
2.29443
2.43461
2.30705
2.4311
2.30321
2.43082
2.32858
2.32837
2.27542
2.27689
2.24418
1.98791
2.24361
1.98897
2.32878
2.32907
2.27993
2.27848
2.24477
1.9909
1.98978
2.24546
2.5027
2.5056
2.76244
2.76438
2.51095
2.50833
2.76781
2.76613
2.41311
2.0187
2.01296
1.88571
1.94438
1.94127
1.89027
2.09419
2.24985
2.32349
2.61094
2.09155
2.2525
2.32688
2.09678
2.61392
2.25727
2.33324
2.25492
2.33022
2.09921
2.41948
2.76241
2.67783
2.41688
2.76411
2.68096
2.44022
2.67638
2.64662
2.37779
2.64496
2.37475
2.44274
2.42197
2.76715
2.68666
2.76568
2.68392
2.42424
2.66585
2.66885
2.6667
2.66393
2.43742
2.43802
2.31051
2.30465
2.43427
2.44114
2.31405
2.68048
2.71363
2.71121
2.68278
2.6743
2.67168
2.66928
2.67165
2.44045
2.30759
2.44692
2.32032
2.44417
2.31714
2.44319
2.32971
2.32935
2.28149
2.28291
2.24691
1.99177
2.24614
1.99294
2.51343
2.51581
2.76933
2.77081
2.52023
2.51806
2.77346
2.77215
2.42643
2.03911
2.03434
1.90089
1.95565
1.95279
1.9052
2.1038
2.25942
2.33624
2.62207
2.10158
2.26151
2.33894
2.10599
2.62434
2.26528
2.34405
2.26341
2.34164
2.10803
2.42842
2.76851
2.68926
2.42643
2.76979
2.69165
2.44941
2.68593
2.65214
2.38862
2.65087
2.38622
2.45137
2.43035
2.77211
2.69602
2.77098
2.69392
2.43208
2.67676
2.67905
2.6759
2.67387
2.44823
2.44961
2.32315
2.31624
2.44584
2.45205
2.32609
2.68857
2.72182
2.72
2.69005
2.68321
2.68121
2.6778
2.67953
2.45054
2.3187
2.4566
2.3312
2.45445
2.3286
2.45259
2.52229
2.52429
2.77463
2.7758
2.52801
2.52617
2.77789
2.77685
2.43762
2.056
2.05207
1.9149
1.91893
2.1119
2.26697
2.34648
2.63063
2.11004
2.26863
2.34862
2.11376
2.63237
2.27164
2.35273
2.27014
2.35082
2.11546
2.43531
2.77316
2.69801
2.43378
2.77415
2.69984
2.45661
2.69326
2.65637
2.39726
2.65538
2.39536
2.45814
2.43681
2.77597
2.7032
2.77508
2.70159
2.43815
2.68508
2.68682
2.68261
2.68114
2.45638
2.45872
2.33351
2.32599
2.45459
2.46064
2.33591
2.69378
2.72801
2.72663
2.69476
2.68998
2.68846
2.68398
2.6852
2.45811
2.32804
2.46422
2.34005
2.46253
2.33793
2.45964
2.52976
2.53146
2.77883
2.77978
2.53465
2.53307
2.78149
2.78062
2.447
2.06993
2.06669
1.92765
1.93139
2.11872
2.27299
2.35471
2.63729
2.11717
2.27433
2.35641
2.1203
2.63864
2.27676
2.35972
2.27554
2.3582
2.12173
2.44066
2.7768
2.70473
2.43947
2.77759
2.70614
2.46229
2.69897
2.65969
2.40418
2.6589
2.40268
2.4635
2.44183
2.77906
2.70873
2.77835
2.70749
2.44287
2.69139
2.69272
2.68723
2.6863
2.46248
2.4659
2.3419
2.33416
2.46115
2.4674
2.34386
2.69736
2.73271
2.73167
2.69804
2.69511
2.69396
2.68811
2.68884
2.46381
2.33587
2.47024
2.34721
2.46891
2.34548
2.46495
2.78225
2.08136
2.07871
1.93912
1.94256
2.12449
2.27785
2.36133
2.64253
2.12318
2.27894
2.36268
2.12584
2.64358
2.28095
2.36536
2.27993
2.36415
2.12704
2.44483
2.77973
2.70993
2.44391
2.78038
2.71101
2.46681
2.70346
2.66235
2.40975
2.6617
2.40857
2.46778
2.44575
2.78158
2.71303
2.781
2.71207
2.44657
2.69618
2.69718
2.69014
2.68955
2.46711
2.47158
2.3487
2.34102
2.46611
2.47277
2.3503
2.69994
2.73634
2.73554
2.70045
2.699
2.69812
2.69073
2.69122
2.46814
2.34244
2.47502
2.35301
2.47397
2.3516
2.469
2.09089
2.08865
1.94944
1.95271
2.12939
2.28183
2.36669
2.64671
2.12829
2.28274
2.36776
2.13056
2.64754
2.2844
2.36994
2.28356
2.36898
2.13158
2.44811
2.78214
2.71396
2.44739
2.78268
2.7148
2.47043
2.70706
2.66453
2.41427
2.66399
2.41332
2.47121
2.44885
2.78368
2.71637
2.7832
2.71563
2.44948
2.69981
2.70058
2.69214
2.69173
2.47066
2.4761
2.3542
2.34675
2.4699
2.47704
2.35551
2.70191
2.73917
2.73855
2.70229
2.70198
2.7013
2.69258
2.69294
2.47147
2.34794
2.47885
2.35775
2.47802
2.35658
2.47214
2.78766
2.78828
2.7894
2.78882
2.1336
2.28514
2.37106
2.65011
2.13267
2.28591
2.37192
2.13455
2.65078
2.28727
2.37357
2.28658
2.37287
2.13536
2.4507
2.78417
2.71711
2.45016
2.78462
2.71777
2.47338
2.70998
2.66635
2.41796
2.6659
2.4172
2.47404
2.45131
2.78548
2.71901
2.78508
2.71844
2.45178
2.7026
2.70321
2.69366
2.69333
2.47346
2.47974
2.35872
2.35161
2.47286
2.48049
2.35981
2.70347
2.74145
2.74094
2.70376
2.70429
2.70375
2.69401
2.69424
2.47411
2.35263
2.48196
2.36164
2.48129
2.36067
2.47462
2.45291
2.78594
2.71963
2.45235
2.78627
2.72026
2.66331
2.4235
2.47751
2.47646
2.71213
2.6667
2.42118
2.78108
2.71986
2.45532
2.45399
2.78624
2.72116
2.70434
2.70348
2.6936
2.69426
2.47575
2.48274
2.36242
2.35587
2.47522
2.48345
2.36337
2.74226
2.70043
2.7036
2.74319
2.68867
2.6981
2.68587
2.69129
2.4874
2.36708
2.47814
2.47691
2.35777
2.48496
2.3651
2.31413
2.24584
2.23881
2.25638
2.23874
2.14507
2.14233
2.12704
2.09582
2.32988
2.28629
2.24155
2.29585
2.24357
2.15886
2.15476
2.09262
2.08316
2.05698
2.12404
2.09048
2.08058
2.05452
2.34768
2.32218
2.25143
2.33041
2.25471
2.17613
2.17148
2.08947
2.07859
2.05249
2.12552
2.08949
2.0771
2.05083
2.36491
2.35277
2.2653
2.35969
2.26915
2.19455
2.18981
2.09032
2.07618
2.04966
2.13058
2.09193
2.07579
2.04891
2.38051
2.37838
2.28077
2.38415
2.28473
2.21279
2.20823
2.09425
2.07589
2.04863
2.13819
2.09723
2.07651
2.0488
2.39418
2.39969
2.29628
2.4045
2.30006
2.23013
2.22587
2.16061
1.95182
2.06792
2.07306
2.16395
1.95239
2.06886
2.10075
2.07751
2.04938
2.1474
2.10474
2.07899
2.05041
1.70665
1.69122
1.70825
1.69102
2.02625
2.15122
1.83413
1.93208
2.02382
2.15419
1.83559
2.40592
2.41738
2.31086
2.42139
2.31431
2.24615
2.24226
1.9457
1.69416
1.86579
1.77674
1.94748
1.69394
1.86612
2.16746
1.95312
2.06994
2.07915
2.17104
1.95414
2.07137
2.1091
2.08072
2.05176
2.15744
2.11376
2.08286
2.05352
1.71019
1.69102
1.71248
1.69129
2.03524
2.16212
1.84014
1.94091
2.0331
2.16464
1.84165
2.41588
2.43208
2.32404
2.43542
2.32711
2.26068
2.25719
1.94936
1.69396
1.8666
1.77771
1.95138
1.69389
1.86722
2.17469
1.95524
2.07286
2.0855
2.17834
1.9566
2.07465
2.11861
2.08515
2.05551
2.1677
2.12362
2.08776
2.05784
1.71505
1.69173
1.71791
1.69242
2.04321
2.17137
1.84634
1.94937
2.04132
2.17353
1.84787
2.42428
2.4443
2.3357
2.4471
2.33838
2.2737
2.27058
1.95343
1.69405
1.86795
1.77911
1.95559
1.69412
1.8688
2.18199
1.95799
2.07644
2.09188
2.18557
1.9596
2.07849
2.12869
2.09043
2.06031
2.17774
2.1338
2.09334
2.06306
1.72099
1.69327
1.7243
1.69437
2.05028
2.1793
1.85265
1.95749
2.04861
2.18117
1.85419
2.43133
2.45449
2.34589
2.45683
2.3482
2.28525
2.2825
1.95773
1.69442
1.86974
1.78084
1.95994
1.69463
1.87078
2.18911
1.9612
2.08049
2.09818
2.19255
1.96299
2.08269
2.13886
2.09622
2.06586
2.18727
2.14388
2.09928
2.06887
2.43725
2.46303
2.35471
2.465
2.3567
2.29546
2.29304
1.96211
1.69504
1.87186
1.78283
1.96429
1.69533
1.87302
2.19591
1.96471
2.0848
2.10426
2.19914
1.96658
2.08706
2.1488
2.10229
2.0719
2.19614
2.15362
2.10541
2.07509
2.44223
2.47021
2.36232
2.47185
2.36403
2.30445
2.30232
1.96641
1.6959
1.87423
1.78503
1.96856
1.69631
1.87549
2.20227
1.96844
2.08926
2.11005
2.2053
1.97041
2.09157
2.15827
2.10826
2.07805
2.20409
2.16272
2.11116
2.08111
2.44653
2.47637
2.36893
2.47783
2.37039
2.31249
2.3106
1.9706
1.69672
1.8766
1.7871
1.97255
1.69694
1.8777
2.20819
1.97199
2.09358
2.11534
2.21086
1.97368
2.09565
2.16707
2.1145
2.08458
2.21141
2.17113
2.11804
2.08853
2.44986
2.48209
2.37457
2.48409
2.37615
2.32102
2.31854
2.21361
1.97631
2.09839
2.1216
2.21733
1.97978
2.10205
2.17614
2.11938
2.08906
2.21818
2.17727
2.12818
2.09931
2.47739
2.38131
2.33933
2.17908
2.33222
2.30042
2.33568
2.6065
2.37708
2.37791
2.59969
2.31741
2.35452
2.35187
2.63909
2.40468
2.40478
2.64517
2.11034
2.18189
2.12469
2.06818
2.12048
2.1255
2.05837
2.21265
2.19562
2.1841
2.11676
2.15458
2.14907
2.12611
2.07538
2.17265
2.25377
2.0769
2.2465
2.0752
2.08268
2.35739
2.32667
2.35981
2.65577
2.41287
2.41248
2.64987
2.33995
2.37325
2.37141
2.67657
2.43294
2.43406
2.68208
2.20477
2.22999
2.21532
2.14372
2.15896
2.16443
2.13472
2.09838
2.26117
2.07883
2.18064
2.09032
2.26875
2.0817
2.2556
2.26398
2.25587
2.18277
2.19296
2.18782
2.19057
2.10659
2.18404
2.28391
2.08837
2.27631
2.08463
2.11503
2.37535
2.34703
2.37702
2.68934
2.44019
2.43886
2.6839
2.35704
2.38656
2.3853
2.70224
2.45438
2.45621
2.70752
2.26972
2.26896
2.27714
2.20412
2.19685
2.20177
2.19677
2.13187
2.29138
2.09208
2.19589
2.12341
2.29881
2.09648
2.28817
2.30952
2.30374
2.2331
2.22603
2.22169
2.23929
2.1402
2.20017
2.31315
2.10553
2.30604
2.10072
2.1485
2.3881
2.36235
2.38924
2.71261
2.46087
2.45888
2.70734
2.36983
2.39609
2.39523
2.7203
2.47078
2.4731
2.72551
2.313
2.2981
2.31833
2.24933
2.2292
2.23331
2.24352
2.16448
2.32002
2.11015
2.21357
2.15654
2.32675
2.11521
2.31237
2.34032
2.33601
2.27049
2.25308
2.24952
2.27539
2.17216
2.21814
2.33949
2.12517
2.3332
2.12002
2.17968
2.39726
2.37385
2.39805
2.72919
2.47669
2.47426
2.72397
2.37955
2.40318
2.40256
2.73343
2.48357
2.48623
2.73865
2.34238
2.31975
2.34637
2.28275
2.25559
2.25894
2.27823
2.19388
2.34548
2.13007
2.23162
2.18687
2.35131
2.13521
2.33045
2.36161
2.35832
2.29801
2.27478
2.2719
2.30168
2.20058
2.23609
2.36222
2.14511
2.35685
2.14008
2.20709
2.40411
2.38266
2.40468
2.74139
2.48906
2.48632
2.73615
2.3871
2.40872
2.40826
2.74332
2.49378
2.49667
2.74857
2.36273
2.33597
2.36579
2.30694
2.27672
2.27942
2.30355
2.21921
2.3673
2.14988
2.24878
2.21324
2.37221
2.15474
2.34395
2.37619
2.37364
2.31758
2.2918
2.28952
2.32039
2.22487
2.25293
2.38132
2.164
2.37685
2.15935
2.23034
2.4095
2.38957
2.40993
2.7507
2.49895
2.49601
2.74542
2.39308
2.41322
2.41286
2.75102
2.50209
2.50514
2.75632
2.37662
2.348
2.37901
2.32413
2.29325
2.29537
2.32152
2.24043
2.38554
2.16841
2.2644
2.23547
2.3896
2.17282
2.35389
2.38607
2.38402
2.33156
2.30491
2.30311
2.33377
2.24511
2.26814
2.3971
2.18117
2.39343
2.17702
2.24963
2.41389
2.39506
2.41421
2.75801
2.50701
2.50391
2.75269
2.39787
2.41694
2.41667
2.7572
2.50893
2.5121
2.76253
2.38605
2.35685
2.38799
2.33644
2.30598
2.30765
2.33439
2.2579
2.40056
2.18513
2.27825
2.25384
2.40388
2.18902
2.36122
2.39285
2.39113
2.34164
2.315
2.31357
2.34339
2.26173
2.28156
2.41
2.19637
2.407
2.19274
2.2654
2.41753
2.39948
2.41778
2.76391
2.51366
2.51045
2.75857
2.40177
2.4201
2.41989
2.76228
2.51465
2.51792
2.76763
2.39254
2.3634
2.39418
2.34531
2.31579
2.31711
2.34368
2.27212
2.41281
2.19985
2.29032
2.26883
2.4155
2.20322
2.36667
2.39759
2.39608
2.34894
2.32279
2.32165
2.35036
2.27523
2.29321
2.42046
2.20958
2.41803
2.20646
2.27821
2.42062
2.40309
2.42081
2.76877
2.51921
2.5159
2.76341
2.40497
2.42281
2.42265
2.76652
2.51945
2.52279
2.77187
2.39707
2.36829
2.39852
2.35176
2.32337
2.32442
2.35043
2.28364
2.42273
2.2126
2.3007
2.28098
2.4249
2.21548
2.37079
2.40094
2.39959
2.35428
2.32886
2.32793
2.35546
2.28614
2.3032
2.4289
2.22094
2.42695
2.21828
2.28855
2.42329
2.40609
2.42342
2.77283
2.52388
2.5205
2.76748
2.40766
2.42518
2.42506
2.77012
2.52351
2.52692
2.77547
2.4003
2.37201
2.40161
2.35648
2.32928
2.33014
2.35538
2.29292
2.43073
2.22353
2.30954
2.29078
2.43248
2.22597
2.37397
2.40336
2.40212
2.35822
2.33363
2.33287
2.3592
2.29494
2.31169
2.43569
2.23062
2.43412
2.22837
2.29688
2.42562