/*--------------------------------*- C++ -*----------------------------------*\
  =========                 |
  \\      /  F ield         | OpenFOAM: The Open Source CFD Toolbox
   \\    /   O peration     | Website:  https://openfoam.org
    \\  /    A nd           | Version:  10
     \\/     M anipulation  |
\*---------------------------------------------------------------------------*/
FoamFile
{
    format      ascii;
    class       volScalarField;
    location    "2000";
    object      nut;
}
// * * * * * * * * * * * * * * * * * * * * * * * * * * * * * * * * * * * * * //

dimensions      [0 2 -1 0 0 0 0];

internalField   nonuniform List<scalar> 
8649
(
0.832577
0.837856
2.04356
3.01346
3.56227
3.8326
4.16297
0.846364
1.88892
2.0495
3.02242
3.5598
3.83647
4.16973
0.856333
2.5247
1.90201
2.05741
3.03178
3.64533
3.55644
3.8403
4.17646
4.72748
0.404666
0.866657
2.53385
1.90873
2.06666
3.03747
3.65152
3.55285
3.84429
4.18327
4.72858
0.410821
0.589416
0.876684
2.54382
2.10334
1.91603
2.07663
3.03218
3.65808
3.43229
3.54918
3.84857
4.19024
4.73023
0.416335
1.14312
0.59556
0.886074
2.55196
3.10877
2.40203
2.11112
1.92424
2.08689
3.02723
3.66502
3.51055
3.43007
3.5456
3.85203
4.1974
4.73242
0.421224
1.14863
0.600476
0.894644
2.55489
3.10855
2.40028
2.11616
1.93311
2.09714
3.02335
3.67235
3.50999
3.42766
3.54219
3.84961
4.20475
4.73513
0.425482
1.15433
0.604408
0.902312
2.55917
3.10863
2.3991
2.12001
1.94237
2.10713
3.02038
3.68008
3.5095
3.42551
3.53938
3.84661
4.21232
4.73838
0.429152
1.16021
0.607561
0.909121
2.5643
3.10747
2.39822
2.12449
1.95182
2.11673
3.0194
3.6881
3.50838
3.42289
3.53665
3.84444
4.22008
4.74217
0.432291
0.610099
0.915129
2.57122
3.10834
2.39803
2.12944
1.96122
2.12588
3.01865
3.69672
3.5091
3.42235
3.53566
3.84046
4.22826
4.74667
0.612155
0.920426
2.57685
3.10459
2.39839
2.13513
1.97063
2.13459
3.02347
3.70523
3.50454
3.41678
3.53236
3.84429
4.23627
4.75153
0.613831
0.924887
2.59013
3.11717
2.39943
2.14021
1.97923
2.14301
3.01613
3.71728
3.5182
3.42917
3.54043
3.8257
4.24732
4.75843
0.615195
0.929279
2.56724
2.14698
1.98838
2.13899
3.01675
3.67053
3.38686
3.5104
3.79849
4.1818
4.71951
0.894442
1.90419
2.01299
0.392755
0.40265
0.403886
0.411739
0.41269
0.418602
0.41931
0.423724
0.424251
0.427567
0.427961
0.430466
0.430761
0.432653
0.432872
0.434306
0.434469
0.435564
0.435686
0.436531
0.436622
0.437284
0.437352
0.437875
0.437933
0.438342
0.438375
0.35001
0.33359
0.525331
0.532454
0.576022
0.590866
1.37266
1.69822
0.533129
0.539363
0.591912
1.37501
1.69904
0.603455
1.38602
1.7056
0.539914
0.545246
0.891566
0.605261
1.3886
1.70722
0.613985
1.3998
1.71568
0.545673
0.902012
0.550162
0.917858
0.615562
1.40235
1.71774
0.622697
1.41316
1.72701
0.550477
0.92764
0.554234
0.941427
0.624076
1.41553
1.72922
0.629879
1.42567
1.73865
0.554452
0.950533
0.557598
0.962284
0.631092
1.42781
1.74087
0.635746
1.43717
1.75013
0.557735
0.970745
0.560377
0.980576
0.636814
1.43907
1.75228
0.640489
1.44765
1.76119
0.560447
0.988442
0.562675
0.996509
0.641437
1.44929
1.76322
0.64433
1.45713
1.77173
0.562689
1.00385
0.564581
1.01032
0.645175
1.45856
1.77364
0.647437
1.4657
1.7817
0.564548
1.01719
0.566166
1.02226
0.648207
1.4669
1.78347
0.649978
1.47341
1.7911
0.566096
1.0287
0.567494
1.03257
0.650679
1.47441
1.79274
0.652056
1.48037
1.79998
0.567394
1.03865
0.568615
1.04156
0.65272
1.48118
1.80148
0.653773
1.48665
1.80842
0.568499
1.04732
0.569509
1.04882
0.654408
1.48731
1.80984
0.655216
1.49183
1.81689
0.569389
1.05276
0.536363
0.918225
0.655819
1.49049
1.81882
0.553874
1.39723
1.68968
0.524864
1.36199
1.35769
0.536158
1.36764
1.68531
0.239276
0.397226
0.243373
0.398601
0.250715
0.24719
0.253971
0.407494
0.256965
0.408595
0.262228
0.259717
0.26453
0.415422
0.266639
0.41625
0.270331
0.26857
0.271943
0.42135
0.273426
0.421968
0.276012
0.274774
0.277145
0.425782
0.2782
0.426245
0.280056
0.279167
0.280871
0.429119
0.281636
0.429468
0.282981
0.282336
0.283571
0.431637
0.284128
0.431899
0.285104
0.284636
0.285531
0.433537
0.285939
0.433734
0.286652
0.28631
0.286962
0.434978
0.287263
0.435127
0.287787
0.287535
0.288014
0.436079
0.288238
0.436193
0.288626
0.28844
0.288792
0.436931
0.288961
0.437018
0.289252
0.289114
0.289382
0.437598
0.289503
0.437665
0.289722
0.289619
0.289832
0.438127
0.289894
0.438185
0.289115
0.290279
0.29182
0.438062
0.275701
0.436296
0.104493
0.22821
0.0273336
0.835727
1.79545
1.78649
0.843599
1.78125
1.77444
0.853347
1.29819
1.77103
2.03335
1.31148
1.7664
2.04281
0.863642
1.32406
1.76483
2.05035
1.3365
1.76225
2.06027
0.87378
1.34814
1.7623
2.06809
1.35957
1.76155
2.07805
0.883342
1.37017
1.76294
2.08579
1.38054
1.76369
2.09551
0.892115
1.39008
1.76605
2.10294
1.39942
1.76787
2.11228
0.90004
1.40795
1.77087
2.11926
1.4163
1.77359
2.1281
0.90711
1.42388
1.77698
2.13459
1.43133
1.78015
2.14291
0.913359
1.43806
1.78373
2.1489
1.44471
1.78776
2.1567
0.918862
1.45067
1.79151
2.16223
1.45664
1.79362
2.16969
0.923724
1.46206
1.797
2.17504
1.46741
1.80899
2.18175
0.928259
1.47203
1.81468
2.18678
1.47107
1.76465
2.19121
0.916909
1.37446
1.76901
2.11513
1.61919
0.22159
0.291436
0.39431
0.222543
0.291827
0.401311
0.226276
0.303519
0.225437
0.305598
0.226564
0.308945
0.405146
0.227365
0.306429
0.41071
0.230195
0.31342
0.22948
0.316434
0.230306
0.318444
0.413647
0.230996
0.315303
0.417832
0.233022
0.319908
0.232421
0.32336
0.23301
0.324705
0.420026
0.233588
0.321172
0.423146
0.235005
0.324305
0.234493
0.328043
0.234905
0.328974
0.42479
0.235401
0.325182
0.427129
0.236396
0.327372
0.235949
0.331307
0.236241
0.331964
0.42837
0.236678
0.327991
0.430133
0.237396
0.32953
0.236992
0.333605
0.237204
0.334067
0.431072
0.237601
0.329966
0.432398
0.238124
0.331045
0.237754
0.335218
0.237908
0.335545
0.43311
0.238275
0.331354
0.43411
0.238656
0.332117
0.23831
0.336358
0.238422
0.336593
0.434653
0.238766
0.33234
0.435411
0.239042
0.332887
0.238716
0.337176
0.238798
0.337347
0.43583
0.239121
0.33305
0.43641
0.239326
0.333447
0.239016
0.33777
0.239077
0.337896
0.436737
0.239385
0.333568
0.437186
0.23954
0.333862
0.239241
0.338207
0.239288
0.338297
0.437444
0.239586
0.333947
0.437804
0.239706
0.334166
0.239413
0.33853
0.239449
0.338595
0.438
0.239739
0.334226
0.438277
0.239861
0.334231
0.239569
0.338718
0.239608
0.338547
0.43838
0.239966
0.333166
0.395961
0.189868
0.16146
0.223908
0.260955
0.168727
0.153627
0.331194
0.167483
0.152488
0.528625
0.460466
0.465901
0.529383
0.475908
0.471057
0.464258
0.582851
0.471224
0.782575
0.957744
0.775524
0.961581
0.583832
0.483875
0.477753
0.789484
0.969496
0.965456
0.796326
0.536037
0.480481
0.484781
0.536675
0.492609
0.488825
0.489595
0.59742
0.494951
0.809541
0.973551
0.802994
0.977502
0.599365
0.504621
0.499947
0.815836
0.983142
0.980449
0.82198
0.542432
0.496161
0.499494
0.542944
0.505541
0.502619
0.508979
0.608979
0.513058
0.833634
0.986541
0.827888
0.989661
0.610671
0.52042
0.51686
0.839103
0.996907
0.993472
0.844412
0.547818
0.508275
0.510846
0.548212
0.515505
0.513253
0.523741
0.618566
0.526854
0.854396
1.00099
0.849481
1.00468
0.62004
0.532482
0.529758
0.859042
1.0128
1.00899
0.863543
0.552295
0.517613
0.519595
0.552584
0.523204
0.521462
0.535023
0.62648
0.537409
0.871962
1.0172
0.867819
1.02108
0.627773
0.541725
0.539635
0.875857
1.02913
1.02555
0.879632
0.555997
0.52484
0.526385
0.556198
0.529204
0.527843
0.543674
0.632984
0.545508
0.886668
1.03226
0.883204
1.03533
0.634121
0.548823
0.547216
0.889908
1.04108
1.03821
0.893051
0.559054
0.530486
0.531701
0.559181
0.533927
0.532853
0.550321
0.638261
0.551731
0.898897
1.04382
0.896017
1.04651
0.639267
0.554283
0.553046
0.901578
1.05153
1.04902
0.904185
0.561581
0.534944
0.535909
0.561647
0.537688
0.53683
0.555437
0.642524
0.556524
0.909027
1.0539
0.906637
1.05625
0.643422
0.558492
0.557538
0.911239
1.06061
1.05843
0.913398
0.563672
0.538504
0.53928
0.563688
0.540717
0.540024
0.559384
0.645973
0.560224
0.917404
1.06268
0.915422
1.06472
0.646787
0.561748
0.561009
0.919226
1.06849
1.0666
0.921014
0.565409
0.541377
0.542009
0.565384
0.543181
0.542615
0.562439
0.648775
0.563091
0.924331
1.07028
0.922685
1.07206
0.649523
0.564273
0.563699
0.925832
1.07534
1.07368
0.927323
0.566859
0.543718
0.544236
0.5668
0.545201
0.544738
0.56481
0.651067
0.565331
0.930075
1.07686
0.928696
1.07842
0.651763
0.56624
0.565792
0.931323
1.08125
1.07982
0.932556
0.568079
0.545657
0.546073
0.567993
0.546857
0.546504
0.56666
0.652956
0.567071
0.934855
1.08257
0.933701
1.08395
0.65361
0.567784
0.567434
0.935888
1.08642
1.08516
0.936921
0.569111
0.547239
0.547528
0.568975
0.547932
0.547777
0.568109
0.654528
0.568428
0.938867
1.0876
0.937887
1.08885
0.65515
0.568486
0.568531
0.939613
1.09114
1.08995
0.94016
0.569931
0.546979
0.546096
0.568997
0.507351
0.536436
0.565794
0.655517
0.558409
0.929891
1.09225
0.938238
1.09312
0.654207
0.302129
0.48818
0.86076
0.954102
1.07739
0.624017
0.388738
0.314704
0.644184
0.941043
0.634263
0.395746
0.223865
0.296665
0.222944
0.296552
0.400007
0.22423
0.301303
0.225111
0.30027
0.406319
0.228382
0.309018
0.227612
0.311722
0.40969
0.228578
0.314206
0.229329
0.311338
0.414538
0.231731
0.316995
0.231072
0.32025
0.417071
0.231775
0.321883
0.232407
0.318525
0.42069
0.234104
0.322315
0.233548
0.325923
0.422581
0.234041
0.327032
0.234577
0.323357
0.425286
0.235761
0.325977
0.235283
0.329821
0.426706
0.235629
0.330596
0.236094
0.326706
0.428744
0.236937
0.328552
0.236511
0.33256
0.429817
0.236761
0.333106
0.237178
0.329064
0.431353
0.237789
0.330359
0.237401
0.334485
0.432163
0.237584
0.334868
0.237966
0.330718
0.433321
0.238411
0.331631
0.238052
0.335839
0.433935
0.238186
0.33611
0.23854
0.331885
0.434812
0.238865
0.332538
0.238527
0.336803
0.435281
0.238625
0.336997
0.238959
0.332721
0.435951
0.239196
0.333194
0.238876
0.337499
0.436313
0.238948
0.33764
0.239265
0.333326
0.436829
0.239441
0.333673
0.239135
0.338007
0.437113
0.23919
0.338111
0.239493
0.333771
0.437517
0.23963
0.334027
0.239332
0.338381
0.437741
0.239374
0.338459
0.239671
0.334099
0.438054
0.239772
0.334278
0.239491
0.338654
0.438238
0.239537
0.338716
0.239794
0.33429
0.438368
0.239835
0.331053
0.239766
0.337601
0.427671
0.239285
0.332906
0.235872
0.296514
1.31424
0.345309
0.348938
0.66078
0.652971
0.555743
1.31716
1.3281
0.359446
0.362725
0.688093
0.567267
0.681761
0.570945
1.31682
1.3311
1.32821
1.34188
0.371905
0.374676
0.710062
0.581572
0.704969
0.584846
1.22361
1.97743
0.402863
1.43973
1.22903
1.97952
1.33247
1.34475
1.34228
1.35489
0.382258
0.384504
0.727733
0.594147
0.723624
0.596956
1.43968
1.23437
1.98057
0.409209
1.43854
1.24083
1.98326
1.34602
1.35749
1.35436
1.36672
0.390522
0.392287
0.741982
0.604871
0.738656
0.60723
1.43914
1.24718
1.98484
0.414908
1.43865
1.25421
1.988
1.42425
1.41115
0.593888
1.42833
1.41764
1.35766
1.36902
1.36473
1.37736
0.396967
0.398326
0.753499
0.613855
0.7508
0.61581
1.43984
1.26119
1.98999
0.419935
1.43993
1.26843
1.99352
0.612601
1.83592
1.54449
1.14659
0.616208
1.8365
1.54726
1.43187
1.42013
0.599085
1.43619
1.42583
1.36766
1.37939
1.3737
1.3869
0.401921
0.402958
0.762822
0.621288
0.760627
0.622903
1.44164
1.27566
1.99578
0.424327
1.28287
1.99957
0.617721
1.8374
1.5502
1.15222
0.620574
1.83833
1.55322
1.43987
1.4281
0.603238
1.44424
1.43311
1.37634
1.38867
1.38151
1.39545
0.405708
0.406496
0.770375
0.627394
0.768586
0.628723
1.29023
2.00203
0.428126
1.29723
2.00601
0.621847
1.83953
1.55634
1.15803
0.624086
1.84077
1.5595
1.4479
1.43518
0.606565
1.45221
1.43962
1.3839
1.397
1.38838
1.40313
0.408602
0.409199
0.776506
0.632381
0.77504
0.633465
1.30415
2.00863
0.431392
1.31079
2.01276
0.625175
1.84223
1.5627
1.16401
0.626922
1.84366
1.56589
1.45577
1.4415
0.609238
1.45991
1.44543
1.39053
1.40447
1.39442
1.41001
0.410818
0.411273
0.78148
0.636443
0.780279
0.63731
1.31807
2.01545
1.32445
2.01968
0.627877
1.5691
0.629226
1.57234
1.46333
1.44717
0.611396
1.46731
1.45067
1.39638
1.41116
1.39976
1.41618
0.412522
0.412865
0.785524
0.639734
0.784542
0.640423
1.32909
2.02264
1.33442
2.02719
0.630082
1.57557
0.63112
1.57863
1.47062
1.45229
0.613161
1.47428
1.45545
1.40159
1.41716
1.40458
1.42176
0.413843
0.414094
0.788832
0.642396
0.78802
0.642941
1.34787
2.02965
1.35424
2.03394
0.63189
1.58166
0.632717
1.58543
1.47718
1.45694
0.614574
1.48101
1.45971
1.40625
1.42259
1.40877
1.42664
0.414888
0.415013
0.791539
0.64456
0.790866
0.645011
1.31982
2.03947
1.30263
2.04225
1.48374
1.46097
0.61019
1.48378
1.44984
1.41006
1.42631
1.39688
1.38579
0.41508
0.399103
0.775598
0.644988
0.789074
0.641739
0.495614
0.595467
0.563006
0.514396
0.191027
0.186328
0.53563
0.499524
0.533149
0.464236
1.95058
0.356028
0.352531
0.66812
0.563421
0.559662
0.675141
0.368965
0.36592
0.694001
0.578081
0.574632
0.699653
0.353713
0.350182
0.339088
0.888222
0.591693
0.674372
0.586021
0.669222
0.342543
0.379865
0.377347
0.714803
0.59111
0.588112
0.719351
0.356861
0.360151
0.348516
0.597916
0.679919
0.905075
0.345475
0.603179
0.684456
0.36613
0.363081
0.351094
0.91516
0.613817
0.693374
0.608982
0.689408
0.353773
0.388641
0.386633
0.731543
0.602292
0.599757
0.735212
0.368836
0.37164
0.35835
0.619223
0.69785
0.930021
0.356014
0.623665
0.701361
0.376699
0.374121
0.360304
0.939425
0.632712
0.708458
0.628672
0.705384
0.362357
0.395514
0.39395
0.745051
0.611695
0.609589
0.748019
0.378953
0.38132
0.36583
0.637354
0.712129
0.952223
0.364038
0.641037
0.714863
0.385531
0.38336
0.36729
0.960962
0.64864
0.720576
0.645318
0.718181
0.368872
0.400807
0.399606
0.755974
0.619506
0.617775
0.75838
0.387357
0.389344
0.371515
0.652599
0.723629
0.971776
0.370118
0.655607
0.725766
0.392791
0.390976
0.372596
0.979892
0.661944
0.73041
0.659251
0.728541
0.373845
0.404856
0.403939
0.764817
0.625936
0.624519
0.766769
0.394238
0.395894
0.375872
0.665311
0.732984
0.98886
0.37476
0.667737
0.734656
0.398688
0.397177
0.37667
0.99641
0.672991
0.738463
0.670835
0.737008
0.377675
0.407948
0.407248
0.771983
0.631196
0.630039
0.773569
0.399817
0.401195
0.37925
0.675857
0.740671
1.0037
0.378346
0.677791
0.741967
0.403448
0.402191
0.37984
1.01076
0.682133
0.745111
0.680428
0.743992
0.380665
0.410315
0.40978
0.777796
0.635466
0.634544
0.779087
0.404318
0.405467
0.381907
0.68458
0.747019
1.01656
0.38116
0.686102
0.748032
0.40728
0.40623
0.382347
1.02315
0.68969
0.750637
0.68836
0.74978
0.383036
0.412134
0.411722
0.782524
0.638929
0.638201
0.78357
0.407943
0.408905
0.384028
0.69179
0.752304
1.02765
0.3834
0.692972
0.753081
0.410366
0.409477
0.384352
1.03386
0.695941
0.755264
0.694918
0.754616
0.384936
0.413532
0.413224
0.786373
0.641728
0.641163
0.787229
0.410852
0.411683
0.385748
0.697764
0.756733
1.03725
0.385206
0.698673
0.757327
0.412886
0.41208
0.385991
1.04316
0.701158
0.759196
0.700373
0.758694
0.386483
0.414612
0.414393
0.789515
0.644012
0.643561
0.790221
0.413186
0.413941
0.387135
0.702739
0.760495
1.04557
0.386692
0.703389
0.760922
0.387218
1.05108
0.705077
0.762265
0.704805
0.762123
0.387682
0.414304
0.41524
0.791926
0.645228
0.645447
0.791887
0.385598
0.705214
0.762422
1.04553
0.385967
0.699581
0.756878
0.364132
1.01722
0.583849
0.617276
0.675416
0.734861
0.309261
0.233258
0.35462
0.69642
0.532896
0.599871
0.536749
0.49781
0.547138
0.554788
0.496853
0.84028
0.97169
1.32633
1.26811
0.932365
0.869265
1.23935
0.200709
0.201363
0.211175
0.218879
0.202087
0.201447
0.22023
0.21245
0.203386
0.20279
0.222679
0.214759
0.202143
0.202762
0.213646
0.2215
0.203394
0.203969
0.215797
0.223779
0.204509
0.203955
0.224799
0.216759
0.205466
0.204951
0.226612
0.218471
0.204469
0.205007
0.21765
0.225744
0.205389
0.205889
0.219231
0.227417
0.206282
0.205801
0.228158
0.219932
0.206974
0.206524
0.229473
0.221176
0.206173
0.206642
0.22058
0.228844
0.20684
0.207279
0.221728
0.230056
0.207563
0.207139
0.230594
0.222238
0.20806
0.207662
0.231549
0.223143
0.207407
0.207822
0.22271
0.231092
0.207889
0.20828
0.223547
0.231974
0.208485
0.208106
0.232367
0.223921
0.208844
0.208485
0.233068
0.224587
0.208299
0.208672
0.224268
0.232733
0.20865
0.209004
0.224886
0.233383
0.209156
0.20881
0.233674
0.225164
0.209422
0.20909
0.234198
0.225661
0.208951
0.209294
0.225423
0.233947
0.209211
0.209541
0.225886
0.234434
0.209656
0.209332
0.234654
0.226097
0.209857
0.209546
0.235051
0.226475
0.209438
0.209759
0.226293
0.234861
0.209638
0.209948
0.226647
0.235233
0.210037
0.209733
0.235402
0.226809
0.210192
0.209898
0.235709
0.227101
0.209813
0.210116
0.226961
0.235562
0.209969
0.210262
0.227235
0.23585
0.210332
0.210044
0.235982
0.227362
0.210453
0.210172
0.236223
0.227592
0.210106
0.210394
0.227481
0.236108
0.210228
0.210509
0.227698
0.236336
0.210564
0.210288
0.236441
0.227799
0.210661
0.21039
0.236634
0.227983
0.210337
0.210614
0.227895
0.236542
0.210436
0.210706
0.228068
0.236724
0.210751
0.210485
0.236809
0.228149
0.210831
0.210568
0.236966
0.228297
0.210523
0.210792
0.228226
0.236892
0.210604
0.210868
0.228366
0.23704
0.210906
0.210645
0.23711
0.228433
0.21096
0.210712
0.237238
0.228553
0.210675
0.210933
0.228496
0.237177
0.210747
0.210989
0.228606
0.237291
0.211016
0.210783
0.237336
0.228647
0.211089
0.210865
0.237393
0.228659
0.210834
0.211053
0.228671
0.23737
0.21092
0.211155
0.228543
0.23746
0.211205
0.210977
0.237607
0.228264
0.189265
0.201433
0.239503
0.212713
0.210536
0.208801
0.227053
0.238415
0.176221
0.167662
0.181233
0.20849
1.91881
1.9227
2.56282
2.62742
1.92692
2.56495
2.62822
0.566819
0.581801
0.564087
0.58463
1.93171
2.56772
2.62961
1.89543
1.93663
2.5707
2.63145
0.631003
0.399471
0.635259
0.979394
0.974612
0.69507
0.576539
0.59222
0.574171
0.594624
1.94145
2.57418
2.63372
1.90616
1.94263
2.57777
2.63643
0.646221
0.406113
0.650031
0.99099
0.700879
0.986145
0.703144
0.584838
0.60102
0.582842
0.603035
1.94402
2.58173
2.63945
1.91293
1.9463
2.5857
2.64278
0.659713
0.412142
0.663104
1.00249
0.70853
0.997665
0.710661
0.882777
0.571182
0.945799
0.59081
0.881046
0.572129
0.948106
0.591786
0.608342
0.590111
0.610021
1.94871
2.5899
2.64629
1.92073
1.95196
2.59402
2.65002
0.671589
0.417501
0.674594
1.01363
0.715634
1.00889
0.717634
0.888709
0.574579
0.953313
0.596626
0.887262
0.575304
0.955312
0.597479
0.614357
0.596092
0.615744
1.95525
2.5983
2.6538
1.92932
1.95926
2.60243
2.65774
0.681971
0.422206
0.684623
1.02428
0.722198
1.01964
0.724068
0.893668
0.577195
0.959691
0.601271
0.892447
0.577763
0.961435
0.601807
0.619246
0.600947
0.620389
1.96318
2.60666
2.66166
1.9384
1.96773
2.61071
2.66567
0.690983
0.426294
0.693313
1.03431
1.0298
0.897843
0.57925
0.965125
0.604987
0.896805
0.579702
0.966656
0.604302
0.623193
0.603755
0.624132
1.97208
2.61481
2.66959
1.94777
1.97698
2.6187
2.67357
0.69875
0.429821
0.700793
1.04367
1.0393
0.901382
0.580885
0.969768
0.607968
0.900493
0.58125
0.971121
0.606164
0.626367
0.605752
0.627139
1.9816
2.62266
2.67745
1.95714
1.98668
2.62637
2.68135
0.705412
0.707201
1.05233
1.04811
0.904399
0.582202
0.973748
0.61037
0.903632
0.582499
0.974968
0.607592
0.628914
0.607275
0.629556
1.99146
2.63013
2.68513
1.96656
1.99667
2.63367
2.68896
0.7111
0.712686
1.06029
1.05621
0.906983
0.583275
0.977169
0.612318
0.906314
0.583521
0.97827
0.608711
0.630963
0.608461
0.631505
2.00147
2.63733
2.69269
1.97524
2.00661
2.64077
2.69655
0.716012
0.717347
1.06764
1.06371
0.909241
0.584163
0.980172
0.613919
0.908651
0.584363
0.981161
0.609605
0.632636
0.609409
0.633073
2.01115
2.6443
2.70022
1.98528
2.01747
2.64755
2.7039
0.910859
0.584842
0.982736
0.615023
0.910591
0.584701
0.983434
0.609333
0.633898
0.60998
0.633881
2.01919
2.65095
2.70418
1.97889
2.01031
2.64401
2.67849
0.548473
0.535795
0.555776
0.552211
0.539314
0.542874
0.559302
0.562631
0.549497
0.546171
0.56901
0.565919
0.552578
0.555675
0.572058
0.574907
0.561384
0.558518
0.915825
0.955119
1.27474
1.3205
0.912137
0.958707
1.27873
0.569302
0.589832
0.587217
0.571856
0.580333
0.577721
0.564002
0.566648
0.919443
1.32488
0.965448
1.28699
0.962225
1.28334
0.922773
0.420472
0.421776
0.421296
0.548279
0.805216
0.804057
0.54759
0.401351
0.642861
0.638833
0.980355
0.699175
0.696843
0.9852
0.582922
0.585312
0.571473
0.569042
0.929216
0.968707
1.29146
1.33562
0.926131
0.971691
1.29488
0.578689
0.599018
0.596822
0.580863
0.58987
0.587688
0.573669
0.575896
0.932252
1.33949
0.977306
1.30202
0.974635
1.29895
0.935019
0.422592
0.423087
0.547695
0.805223
0.548351
0.806391
0.424398
0.423899
0.54845
0.807565
0.806396
0.547816
0.407824
0.65677
0.653175
0.991927
0.706969
0.704773
0.996788
0.592045
0.594034
0.57993
0.577896
0.940393
0.980038
1.30595
1.34866
0.937834
0.982516
1.3088
0.586653
0.606692
0.604865
0.588474
0.597832
0.596024
0.581761
0.583602
0.942922
1.35204
0.987182
1.31489
0.984975
1.31236
0.945198
0.425195
0.425693
0.547909
0.807587
0.54851
0.808767
0.43831
0.426973
0.426487
0.548601
0.809969
0.808788
0.547993
0.413662
0.669036
0.665845
1.00333
0.714213
0.712149
1.00813
0.743558
0.414408
0.638293
0.742133
0.415209
0.640058
0.884298
0.592664
0.57382
0.951833
0.572997
0.949713
0.885856
0.744929
0.416681
0.643164
0.415975
0.641566
0.746225
0.599647
0.601288
0.586933
0.585265
0.949653
0.989473
1.31834
1.35984
0.947544
0.991529
1.3207
0.593262
0.613024
0.611512
0.594777
0.604426
0.602938
0.588452
0.58995
0.95175
1.36282
0.99541
1.32589
0.993586
1.32381
0.953613
0.438353
0.43838
0.427756
0.428231
0.548078
0.810006
0.548668
0.811197
0.438442
0.438419
0.429462
0.429011
0.54877
0.812423
0.811232
0.548169
0.569823
0.570888
0.396949
0.3975
0.572961
0.571979
0.398608
0.398111
0.418862
0.67978
0.676959
1.01433
0.720915
0.718982
1.01904
1.04465
0.698331
0.989047
0.613644
1.04283
0.699476
0.991087
1.04586
0.615305
0.701566
0.994284
0.700519
0.992393
1.04755
0.748661
0.417357
0.644525
0.747475
0.417979
0.645987
0.88997
0.598162
0.576607
0.958472
0.575971
0.956632
0.891274
0.749804
0.419124
0.64854
0.418575
0.647221
0.750882
0.605914
0.607265
0.592679
0.59131
0.957298
0.997336
1.32893
1.36948
0.955565
0.999045
1.33088
0.598655
0.618186
0.61694
0.599897
0.609834
0.608612
0.593901
0.595129
0.959036
1.37214
1.00228
1.33532
1.00077
1.33362
0.960558
0.438522
0.438528
0.43023
0.43066
0.548267
0.812471
0.54885
0.813671
0.573978
0.574889
0.399164
0.399605
0.576676
0.575834
0.400512
0.400115
0.423431
0.689122
0.68664
1.0248
0.727081
0.725278
1.02939
1.05035
0.702518
0.995488
0.618509
1.04871
0.703483
0.997279
1.05139
0.619902
0.705238
1.00002
0.704353
0.998353
1.05293
0.752912
0.419652
0.649648
0.751924
0.420135
0.650854
0.894719
0.602558
0.578787
0.964124
0.578285
0.962517
0.895821
0.753865
0.42103
0.652939
0.420603
0.651857
0.754765
0.611036
0.612138
0.597328
0.596205
0.963612
1.00391
1.33803
1.37784
0.962186
1.00533
1.33964
0.602515
0.622358
0.621336
0.603151
0.61422
0.613234
0.598287
0.599283
0.96506
1.38022
1.00804
1.34348
1.00679
1.34208
0.966325
0.577559
0.578346
0.400977
0.401329
0.579902
0.579171
0.402076
0.401757
0.427389
0.69719
0.695012
1.03464
1.03909
1.05542
0.706033
1.00101
0.622425
1.05391
0.706849
1.00259
1.05629
0.623606
0.708327
1.00494
0.707578
1.00347
1.05769
0.756458
0.421447
0.653839
0.755634
0.421824
0.654829
0.898724
0.606077
0.580517
0.96895
0.580115
0.967537
0.899662
0.757255
0.422529
0.656529
0.422194
0.655643
0.758005
0.615204
0.616082
0.601022
0.60013
0.968841
1.00942
1.34591
1.38514
0.967668
1.01061
1.34723
0.604826
0.625714
0.624876
0.605297
0.617766
0.616976
0.601765
0.602486
0.970044
1.38729
1.01289
1.35055
1.01185
1.3494
0.971078
0.580671
0.581363
0.402468
0.402749
0.582732
0.582087
0.40337
0.403114
0.430786
0.704117
0.702209
1.04379
1.0481
1.05991
0.708994
1.00575
0.625577
1.05854
0.709688
1.00716
1.06066
0.626601
0.710939
1.00918
0.7103
1.00787
1.06193
0.759421
0.422859
0.657256
0.758732
0.423158
0.658073
0.902124
0.608903
0.581906
0.973086
0.581581
0.971834
0.902928
0.760089
0.423719
0.659462
0.42345
0.658732
0.760717
0.618557
0.619257
0.603451
0.602995
0.973161
1.01407
1.35272
1.39156
0.9722
1.01507
1.3538
0.606565
0.628409
0.627718
0.606923
0.620592
0.61997
0.603884
0.604269
0.974166
1.39352
1.01699
1.35669
1.01612
1.35576
0.97501
0.403705
0.710033
0.708364
1.05224
1.0564
1.06392
0.711501
1.00984
0.628131
1.06266
0.712108
1.01111
1.06457
0.629039
0.71316
1.01285
0.712624
1.01167
1.06575
0.761904
0.42398
0.660042
0.761327
0.424219
0.660725
0.905025
0.611187
0.583034
0.976653
0.582766
0.975519
0.905733
0.762464
0.424668
0.661863
0.424453
0.661251
0.762991
0.621223
0.621768
0.604971
0.604639
0.976743
1.018
1.35865
1.39724
0.975953
1.01884
1.35953
0.607905
0.630578
0.630004
0.608182
0.622825
0.622342
0.605293
0.605578
0.977587
1.39902
1.02046
1.36208
1.01974
1.36131
0.978279
0.715163
0.713668
1.06004
1.0641
1.06754
0.713653
1.01339
0.630215
1.06639
0.714171
1.01453
1.06812
0.631033
0.715099
1.01608
0.714616
1.01501
1.06923
0.763993
0.424877
0.662323
0.763506
0.425071
0.662904
0.90752
0.61304
0.583964
0.979751
0.583741
0.978726
0.908142
0.76447
0.425439
0.663837
0.425252
0.663317
0.764913
0.623333
0.623751
0.606111
0.60586
0.979742
1.02134
1.3639
1.4023
0.979084
1.02206
1.36462
0.608962
0.632328
0.63185
0.609183
0.624595
0.624225
0.606361
0.606582
0.980465
1.40396
1.02349
1.36687
1.02284
1.36625
0.981061
0.405631
0.405786
0.406168
0.406026
1.07092
0.715516
1.01652
0.631935
1.0698
0.715986
1.01757
1.07141
0.632673
0.716791
1.01892
0.716369
1.01792
1.0725
0.765763
0.42559
0.664195
0.76535
0.425771
0.6647
0.909667
0.614562
0.58471
0.98244
0.584537
0.9815
0.910212
0.766143
0.42607
0.665483
0.425895
0.664992
0.766507
0.625017
0.625322
0.607002
0.606803
0.982292
1.02423
1.36853
1.40683
0.981748
1.02483
1.36911
0.609803
0.633735
0.633346
0.609949
0.625786
0.62576
0.607193
0.607255
0.982899
1.40833
1.026
1.37101
1.02551
1.37057
0.983356
0.76683
0.426136
0.665644
0.766826
0.426187
0.665682
0.57448
0.974446
0.902467
0.909716
0.614555
0.58294
0.982044
0.42199
0.658986
0.756444
0.765242
0.42518
0.663806
0.625389
0.621941
0.604709
0.606791
0.98333
1.02658
1.37218
1.40988
0.98376
1.02649
1.37177
0.626818
0.595085
0.606225
0.632393
0.578725
0.60627
0.584123
0.598336
1.01181
1.35834
0.968547
0.980427
1.40821
1.02414
1.36961
0.833065
0.889121
1.19064
0.894827
1.19049
1.27269
1.26815
2.04149
2.23125
0.839326
0.910002
1.18902
0.914687
1.18852
1.28783
1.28362
2.23268
2.74033
2.91748
2.04619
2.23466
2.74021
2.91775
0.848334
0.927177
1.19018
0.931067
1.19051
1.3016
1.29778
2.23734
2.74067
2.91848
2.05321
2.23965
2.74166
2.91966
0.858473
0.94147
1.1946
0.944743
1.19548
1.3141
1.31061
2.23439
2.74312
2.92131
2.06188
2.2299
2.74509
2.92346
0.868752
0.953512
1.20134
0.956299
1.20257
1.32552
1.3223
2.22542
2.74742
2.92596
2.07154
2.22211
2.75018
2.92891
0.878639
0.963765
1.20966
0.96616
1.21106
1.33604
1.33304
1.98582
2.68737
2.54327
2.10718
1.98787
2.68978
2.54081
2.21908
2.75318
2.93207
2.08172
2.21729
2.75654
2.93563
1.7591
2.18596
1.76206
2.18544
1.23331
0.936746
1.48358
1.14388
1.23156
0.938172
1.48515
0.887821
0.972566
1.21886
0.97464
1.22031
1.34576
1.34296
2.20154
3.00363
2.60022
2.40077
2.20417
3.00476
2.59964
1.98883
2.69228
2.54109
2.11367
1.99155
2.69491
2.53914
2.2159
2.76001
2.93929
2.092
2.21564
2.76381
2.94328
1.76489
2.1844
1.76818
2.18423
1.2391
0.942274
1.48944
1.14941
1.2375
0.94353
1.49097
0.896168
0.980167
1.22838
0.981974
1.22982
1.35475
1.35213
2.20691
3.00569
2.59949
2.39921
2.20957
3.00697
2.59905
1.99307
2.69759
2.53988
2.11721
1.99628
2.70039
2.5384
2.21576
2.76756
2.94724
2.10213
2.21688
2.77158
2.95147
1.77131
2.18387
1.77487
2.18405
1.24439
0.94717
1.49521
1.15514
1.2429
0.948286
1.49672
0.903655
0.986764
1.23786
0.988346
1.23929
1.36307
1.36062
2.21232
3.00804
2.5993
2.39827
2.21496
3.00944
2.59906
1.99822
2.70317
2.53974
2.1214
2.00181
2.70604
2.53878
2.21831
2.77549
2.9556
2.11194
2.22053
2.77964
2.95999
1.77825
2.18315
1.78206
2.18358
1.24925
0.951542
1.5009
1.16103
1.24784
0.952542
1.5024
0.910303
0.99252
1.24695
0.99391
1.24842
1.37075
1.36845
2.21768
3.01064
2.5992
2.39754
2.22028
3.01219
2.59908
2.00409
2.70888
2.54032
2.12615
2.00784
2.71177
2.53988
2.22303
2.78358
2.96415
2.12132
2.22618
2.78775
2.9686
0.916165
0.997549
1.25564
0.998776
1.25708
1.37785
1.3757
2.22299
3.01352
2.60018
2.3979
2.22557
3.01523
2.60054
2.01042
2.7146
2.5423
2.1317
2.01449
2.71752
2.54263
2.22954
2.7917
2.97279
2.13027
2.23307
2.7959
2.97731
0.921377
1.00197
1.26378
1.00306
1.26519
1.38443
1.38238
2.22828
3.01685
2.59932
2.39738
2.231
3.01898
2.59959
2.01732
2.72046
2.54296
2.13708
2.02065
2.72354
2.54337
2.23671
2.79974
2.98139
2.13874
2.24251
2.80394
2.98596
0.92567
1.00592
1.27114
1.0069
1.27242
1.39065
1.38863
2.23395
3.02099
2.60669
2.40412
2.23716
3.02379
2.60863
2.02348
2.72652
2.55198
2.14564
2.0293
2.72977
2.5549
2.2457
2.80834
2.99069
2.14676
2.25582
2.81243
2.99569
0.931804
1.00908
1.27596
1.00837
1.27768
1.39438
1.39414
2.03124
2.73382
2.52753
2.14796
2.02596
2.73149
2.52728
2.23516
2.80088
2.98777
2.04279
2.19421
2.69486
2.8615
0.784353
1.20822
1.21731
2.17147
0.352725
0.526615
0.353436
0.378735
0.587905
0.590434
0.377744
0.531274
0.357245
0.356641
0.38662
0.597686
0.59532
0.387537
0.467485
0.578925
0.469163
0.624648
0.753108
0.753106
0.624469
0.587857
0.484086
0.482849
0.636828
0.763742
0.763769
0.637404
1.04381
1.36866
0.985144
1.44228
0.980429
1.43745
1.05005
0.357805
0.534277
0.358375
0.390106
0.597588
0.599924
0.389222
0.538314
0.361373
0.360898
0.396235
0.606059
0.603858
0.397021
0.487364
0.594202
0.488493
0.642044
0.767288
0.767239
0.641314
1.06208
0.98958
1.4452
1.37926
1.05598
0.994121
1.45036
0.60237
0.500009
0.499312
0.654687
0.777417
0.777585
0.655556
1.06777
1.38172
1.00263
1.4587
0.99833
1.45344
1.0736
0.361803
0.540929
0.362249
0.399002
0.605779
0.607954
0.398248
0.544327
0.364549
0.364182
0.403653
0.613135
0.611075
0.404328
0.502762
0.606284
0.503364
0.660184
0.780862
0.780643
0.65926
1.08464
1.00664
1.46194
1.39298
1.07906
1.01073
1.46732
0.613165
0.512095
0.511839
0.672095
0.789878
0.790246
0.672978
1.08978
1.39551
1.01832
1.47584
1.01447
1.47052
1.09503
0.364873
0.546562
0.365216
0.40584
0.612696
0.614737
0.40519
0.549358
0.366958
0.366676
0.409346
0.619102
0.61716
0.409935
0.514462
0.616338
0.514655
0.677279
0.793195
0.792778
0.676355
1.10486
1.02185
1.47906
1.40662
1.09988
1.02549
1.48433
0.622098
0.521351
0.521423
0.688147
0.801054
0.801617
0.688817
1.10937
1.40904
1.03217
1.49253
1.02878
1.48742
1.114
0.367198
0.551254
0.367463
0.41109
0.618525
0.620454
0.410521