/*--------------------------------*- C++ -*----------------------------------*\
  =========                 |
  \\      /  F ield         | OpenFOAM: The Open Source CFD Toolbox
   \\    /   O peration     | Website:  https://openfoam.org
    \\  /    A nd           | Version:  10
     \\/     M anipulation  |
\*---------------------------------------------------------------------------*/
FoamFile
{
    format      ascii;
    class       volScalarField;
    location    "2000";
    object      omega;
}
// * * * * * * * * * * * * * * * * * * * * * * * * * * * * * * * * * * * * * //

dimensions      [0 0 -1 0 0 0 0];

internalField   nonuniform List<scalar> 
8649
(
2.68343
2.68069
1.03982
0.676813
0.555698
0.523388
0.466165
2.6783
1.14748
1.03649
0.674365
0.554913
0.522331
0.465072
2.67461
0.769726
1.1441
1.03415
0.672209
0.52175
0.554176
0.521338
0.464026
0.390137
4.9944
2.66942
0.767921
1.1417
1.03265
0.670367
0.520586
0.553506
0.520424
0.463032
0.389929
4.9663
4.33928
2.66312
0.766437
0.984258
1.14001
1.03179
0.668845
0.519512
0.533912
0.552908
0.519597
0.462092
0.389689
4.94114
1.62797
4.32744
2.65621
0.76524
0.486331
0.717717
0.983373
1.13879
1.03137
0.66764
0.518535
0.463407
0.533479
0.552393
0.518866
0.461213
0.389425
4.91865
1.62691
4.31695
2.64912
0.764288
0.485989
0.717138
0.982823
1.13788
1.0312
0.666728
0.51765
0.463188
0.533091
0.551962
0.518232
0.460403
0.389144
4.8988
1.62588
4.30789
2.64214
0.763527
0.48564
0.716689
0.982484
1.13711
1.03115
0.666068
0.516859
0.462973
0.532753
0.551607
0.517693
0.459664
0.388854
4.88155
1.62481
4.30019
2.63548
0.762911
0.485293
0.716349
0.982288
1.1364
1.03111
0.665618
0.516141
0.462766
0.532464
0.551326
0.517241
0.45899
0.388552
4.86671
4.29373
2.62929
0.762358
0.484935
0.71608
0.982159
1.13567
1.031
0.665314
0.515507
0.462548
0.532205
0.5511
0.516868
0.458387
0.388246
4.28833
2.6236
0.761863
0.484554
0.71581
0.981994
1.13489
1.03077
0.665057
0.514795
0.462307
0.531967
0.550922
0.516508
0.457754
0.387886
4.2838
2.61834
0.760937
0.483991
0.715369
0.981694
1.13404
1.03026
0.664537
0.514371
0.461922
0.531636
0.550715
0.516343
0.457265
0.387587
4.28015
2.61345
0.771928
0.980997
1.13345
1.03596
0.678681
0.520594
0.532258
0.552837
0.529821
0.464614
0.391234
2.73432
1.19067
1.10327
5.72571
5.69559
5.69244
5.6605
5.65745
5.62886
5.62639
5.60268
5.6009
5.58206
5.58089
5.56601
5.56532
5.55346
5.55313
5.54364
5.5436
5.53602
5.53622
5.53018
5.53056
5.52573
5.52626
5.52239
5.52296
5.51992
5.52073
6.95112
7.2641
4.37164
4.35847
3.75828
3.75493
1.58443
1.22177
4.35842
4.34303
3.7516
1.58364
1.22077
3.74549
1.57847
1.21682
4.34271
4.32637
2.03546
3.74164
1.57837
1.21638
3.73237
1.57492
1.21411
4.326
2.02732
4.31013
2.02961
3.72816
1.57526
1.21418
3.71757
1.57283
1.21328
4.30991
2.02184
4.29542
2.02453
3.71331
1.5734
1.21373
3.70286
1.57145
1.21373
4.29542
2.01681
4.28265
2.01928
3.69869
1.57212
1.2144
3.68911
1.57031
1.21481
4.2829
2.01151
4.27178
2.01365
3.68511
1.57099
1.21555
3.67671
1.56914
1.21602
4.27226
2.00585
4.26262
2.00775
3.6729
1.56979
1.21674
3.66573
1.56782
1.21705
4.2633
1.99995
4.25497
2.00177
3.66217
1.5684
1.21771
3.65626
1.56629
1.21778
4.25582
1.99404
4.2486
1.99589
3.65287
1.56685
1.21835
3.64809
1.56461
1.21815
4.2496
1.98827
4.2433
1.99023
3.64492
1.56512
1.21861
3.64117
1.56275
1.21812
4.24443
1.98273
4.23886
1.98483
3.63809
1.56324
1.21851
3.63532
1.56074
1.21767
4.24004
1.97755
4.23544
1.98076
3.63232
1.56118
1.21798
3.63038
1.55914
1.21635
4.23648
1.97645
4.4852
2.27488
3.62762
1.56209
1.21674
4.26317
1.67135
1.3117
4.57168
1.73673
1.73469
4.38558
1.70545
1.31382
9.23175
5.71264
9.21009
5.70971
9.1639
9.18711
9.13995
5.67787
9.1169
5.67454
9.07352
9.09458
9.05271
5.64406
9.03347
5.64117
8.99874
9.01538
8.98249
5.61505
8.96778
5.61281
8.94197
8.95422
8.92996
5.59171
8.91923
5.59015
8.90056
8.90936
8.89177
5.57353
8.88402
5.57252
8.8707
8.87692
8.8643
5.55934
8.85877
5.55875
8.84943
8.85374
8.8448
5.54823
8.84092
5.54796
8.83452
8.83741
8.8312
5.53957
8.82851
5.53956
8.82426
8.82613
8.82191
5.53289
8.8201
5.53309
8.81743
8.81854
8.81577
5.52779
8.81458
5.52815
8.81266
8.81359
8.81189
5.52392
8.81114
5.52441
8.81007
8.8106
8.80954
5.52105
8.8097
5.52157
8.83607
8.81469
8.97287
5.52376
9.31163
5.54569
19.023
11.4962
20.0815
2.68124
1.19366
1.1919
2.67897
1.19066
1.18949
2.67565
1.49127
1.18887
0.955987
1.48706
1.18825
0.952962
2.67082
1.48399
1.18814
0.951281
1.48129
1.18798
0.94901
2.66475
1.47939
1.18825
0.948025
1.47756
1.18842
0.946379
2.65795
1.47629
1.18894
0.945948
1.47493
1.18928
0.94477
2.65087
1.47398
1.18991
0.944739
1.47284
1.19029
0.943889
2.64385
1.47202
1.19093
0.944136
1.47096
1.19127
0.943507
2.63712
1.4702
1.19184
0.943916
1.46916
1.19209
0.94342
2.63081
1.46839
1.19256
0.943912
1.46733
1.19267
0.94347
2.62494
1.46653
1.19297
0.943958
1.46544
1.19297
0.943564
2.61955
1.46462
1.19311
0.943987
1.46344
1.19267
0.943356
2.61478
1.46254
1.19223
0.943486
1.46777
1.19441
0.946227
2.67026
1.5744
1.22298
0.985095
1.26087
10.5888
7.89029
5.7206
10.5657
8.00489
5.70126
10.5018
7.95592
10.5243
7.84482
10.5042
7.82776
5.68676
10.4822
7.93843
5.66595
10.4301
7.88949
10.4506
7.77893
10.4351
7.76387
5.65215
10.4151
7.87452
5.63366
10.3767
7.83531
10.3952
7.72411
10.384
7.71239
5.62178
10.366
7.82378
5.60673
10.3395
7.79439
10.3562
7.68239
10.3487
7.6737
5.59703
10.3324
7.78586
5.58542
10.315
7.76438
10.3304
7.65169
10.3255
7.64527
5.57767
10.3104
7.75806
5.56886
10.2992
7.74219
10.3138
7.62895
10.3107
7.62414
5.56258
10.2963
7.73746
5.55591
10.2892
7.72569
10.3032
7.61196
10.3013
7.60834
5.55077
10.2874
7.72215
5.54576
10.2832
7.71355
10.2968
7.59936
10.2957
7.59669
5.54155
10.2822
7.71095
5.53788
10.28
7.70482
10.2934
7.59022
10.2928
7.58827
5.53441
10.2796
7.70293
5.53183
10.2789
7.69865
10.292
7.58371
10.2919
7.58231
5.52895
10.2789
7.69731
5.52722
10.2792
7.69432
10.2921
7.57915
10.2923
7.57826
5.52481
10.2794
7.69351
5.52364
10.2805
7.69155
10.2933
7.57611
10.2938
7.57557
5.52175
10.2811
7.69107
5.52124
10.2835
7.69239
10.2963
7.57449
10.2967
7.57719
5.51982
10.2833
7.70587
6.1423
15.1559
14.1768
12.6545
9.80046
16.6924
14.5979
7.25216
17.0277
14.2509
4.3652
5.02671
5.02145
4.36516
5.01015
5.01562
4.36208
3.75817
4.36296
2.54389
2.15956
2.54823
2.15775
3.75491
4.36231
4.36303
2.54071
2.15595
2.15667
2.53822
4.35101
5.00391
4.99813
4.35062
4.98634
4.99196
4.36068
3.75072
4.3583
2.53484
2.15565
2.53637
2.15559
3.74708
4.3515
4.35518
2.53378
2.15619
2.15588
2.53281
4.33473
4.98011
4.9745
4.33418
4.96343
4.96864
4.34723
3.73918
4.34257
2.5311
2.15664
2.53198
2.15704
3.73509
4.33232
4.33754
2.53035
2.15793
2.15757
2.52945
4.31811
4.95771
4.95268
4.31762
4.94291
4.94745
4.32685
3.72495
4.32132
2.52739
2.15825
2.52852
2.15842
3.72068
4.31015
4.31571
2.52631
2.15857
2.15862
2.52502
4.30254
4.9379
4.93358
4.30225
4.92524
4.92907
4.30457
3.71003
4.29911
2.5221
2.15843
2.52366
2.15811
3.7058
4.2885
4.29372
2.5206
2.15724
2.1578
2.51892
4.28879
4.92094
4.91732
4.28874
4.91031
4.91348
4.28336
3.69573
4.27841
2.51534
2.15659
2.51721
2.15579
3.69164
4.26899
4.27359
2.51355
2.15407
2.15503
2.51164
4.27699
4.90664
4.90363
4.27718
4.89779
4.90039
4.26449
3.68263
4.26021
2.50769
2.15307
2.50972
2.15195
3.67872
4.25216
4.25608
2.50578
2.14969
2.1509
2.50377
4.26699
4.89467
4.89218
4.2674
4.88732
4.88944
4.24836
3.67096
4.24476
2.49973
2.14848
2.50179
2.14717
3.66725
4.23803
4.2413
2.49781
2.14464
2.14598
2.49582
4.25862
4.88466
4.88261
4.25921
4.87856
4.88028
4.2349
3.66077
4.23191
2.49189
2.14331
2.49389
2.14193
3.65724
4.22639
4.22907
2.49006
2.13929
2.14067
2.48817
4.25163
4.87628
4.8746
4.25239
4.87123
4.87262
4.22382
3.65199
4.22137
2.48447
2.13795
2.48634
2.13656
3.64863
4.21688
4.21906
2.48277
2.13392
2.13531
2.48099
4.24582
4.86927
4.86788
4.24672
4.86502
4.86619
4.21479
3.64449
4.2127
2.47757
2.13264
2.47933
2.13126
3.64128
4.20912
4.21091
2.476
2.12875
2.13006
2.4744
4.24097
4.86338
4.86226
4.24197
4.85983
4.8608
4.20743
3.63811
4.20572
2.47129
2.12753
2.47289
2.12618
3.63504
4.20281
4.20425
2.46989
2.1238
2.12506
2.46842
4.23697
4.85847
4.85778
4.23826
4.8575
4.85704
4.20143
3.63273
4.20006
2.46551
2.12261
2.467
2.12127
3.62983
4.20123
4.19948
2.46435
2.1187
2.12013
2.46409
4.23292
4.86113
4.88417
4.24012
5.60697
4.97151
4.21352
3.62961
4.28112
2.4954
2.11745
2.46828
2.1162
3.63726
7.22584
4.79522
2.66606
2.40235
2.14767
3.58051
6.8519
6.89536
3.3991
2.42644
3.48587
5.7179
10.5437
7.98975
10.5669
7.87681
5.70427
10.5452
7.86134
10.5224
7.97313
5.68342
10.4636
7.92145
10.4852
7.81097
5.66909
10.4672
7.79461
10.4463
7.90507
5.64912
10.4011
7.86057
10.4206
7.74979
5.63629
10.4073
7.73652
10.3884
7.84748
5.61938
10.3562
7.8132
10.3738
7.70165
5.60868
10.3645
7.69164
10.3475
7.8034
5.59531
10.3258
7.77812
10.3419
7.66581
5.58673
10.3357
7.65847
10.3202
7.77096
5.57653
10.3061
7.75236
10.3211
7.63944
5.56965
10.3171
7.634
10.3025
7.74706
5.56189
10.2936
7.73323
10.3078
7.61979
5.55631
10.3053
7.61573
10.2913
7.72929
5.55043
10.2857
7.71903
10.2995
7.60512
5.54586
10.298
7.60213
10.2844
7.71616
5.54148
10.2812
7.70871
10.2947
7.59437
5.53774
10.2938
7.5922
10.2806
7.70665
5.53456
10.2792
7.70135
10.2924
7.58663
5.53149
10.292
7.5851
10.2791
7.69992
5.52927
10.2788
7.69622
10.2919
7.58118
5.52672
10.2918
7.58012
10.279
7.69524
5.52526
10.2796
7.69276
10.2925
7.57746
5.52312
10.2927
7.57673
10.28
7.69212
5.52234
10.2816
7.69066
10.2944
7.57508
5.52053
10.2949
7.57433
10.2828
7.69043
5.52074
10.3065
7.7559
10.301
7.59002
5.66281
10.4636
7.68942
10.8495
8.63
1.6701
6.33072
6.31675
3.20064
3.20902
4.18097
1.66908
1.66493
6.27801
6.2657
3.17709
4.16508
3.18225
4.16014
1.69424
1.66457
1.69144
1.662
6.23012
6.2187
3.16049
4.14707
3.16454
4.14266
1.53141
0.981669
5.00146
1.35697
1.52962
0.980657
1.68969
1.66202
1.68814
1.66025
6.18601
6.17568
3.14606
4.13044
3.14977
4.12627
1.35638
1.5283
0.980366
4.97251
1.35573
1.52696
0.979482
1.68672
1.66048
1.6858
1.65905
6.14689
6.13796
3.1325
4.1148
3.13603
4.1109
1.35522
1.52595
0.979306
4.94661
1.35464
1.5248
0.978527
1.5088
1.61103
4.33037
1.50869
1.61095
1.68452
1.65932
1.68387
1.65789
6.11357
6.10614
3.11964
4.10035
3.12298
4.0968
1.35419
1.52389
0.978443
4.9235
1.35365
1.52278
0.977742
3.9688
0.998904
1.31245
1.62841
3.96226
0.998655
1.31236
1.50849
1.61032
4.31952
1.50838
1.6102
1.68264
1.65814
1.68206
1.65656
6.08614
6.08011
3.10768
4.08733
3.11078
4.08415
1.35324
1.52186
0.977738
4.90301
1.52072
0.977098
3.96012
0.998436
1.31222
1.62737
3.95425
0.998284
1.31212
1.50815
1.60953
4.3101
1.50798
1.60931
1.68082
1.65675
1.68026
1.65498
6.06407
6.05927
3.0968
4.07582
3.09961
4.07301
1.51973
0.977139
4.88513
1.51849
0.976532
3.95236
0.998136
1.31195
1.6263
3.94722
0.998052
1.31182
1.50769
1.6086
4.30208
1.50741
1.60824
1.679
1.65511
1.67836
1.65315
6.04658
6.04279
3.08705
4.06579
3.0896
4.06329
1.51742
0.976608
4.8697
1.51612
0.976024
3.94558
0.997951
1.31158
1.62517
3.94116
0.997902
1.31141
1.50704
1.60751
4.29532
1.50668
1.60703
1.67715
1.65323
1.67647
1.65113
6.03285
6.02989
3.0785
4.05716
3.08076
4.05499
1.51495
0.97609
1.51353
0.975474
3.93974
1.31112
3.93596
1.31086
1.50622
1.60624
4.28967
1.50576
1.60566
1.67525
1.65118
1.67457
1.64895
6.02216
6.0197
3.07106
4.04975
3.07303
4.04793
1.51234
0.975599
1.51089
0.974984
3.93475
1.31048
3.93149
1.31011
1.50518
1.60482
4.28494
1.50462
1.60413
1.67331
1.64897
1.67258
1.64662
6.01384
6.01191
3.06459
4.04351
3.06632
4.04191
1.5094
0.974746
1.50783
0.973753
3.93045
1.3096
3.92793
1.30898
1.50396
1.60331
4.28105
1.50324
1.60267
1.67138
1.64663
1.6708
1.6444
6.00734
6.00662
3.059
4.03816
3.06046
4.03686
1.51291
0.975177
1.57513
0.977268
1.50255
1.60194
4.3546
1.5088
1.61804
1.66994
1.64568
1.68986
1.69837
6.16399
6.47738
3.13868
4.0768
3.07036
4.15604
5.37388
4.59093
4.77387
5.25162
11.4279
11.9023
4.44967
5.45114
4.4681
5.83794
1.16494
6.29057
6.30347
3.19385
4.16993
4.17535
3.18766
6.24177
6.25365
3.1728
4.15127
4.15578
3.16851
5.64723
5.65965
6.42012
2.03077
3.21849
3.1939
3.21979
3.19336
6.40613
6.19661
6.20755
3.15698
4.13438
4.1386
3.15329
5.63405
5.62134
6.37607
3.21341
3.19017
2.03234
6.38954
3.21166
3.19029
5.5955
5.60808
6.36029
2.02444
3.20416
3.18597
3.20623
3.18619
6.34785
6.15611
6.16578
3.14282
4.11848
4.12245
3.13935
5.58234
5.57
6.32164
3.1984
3.1816
2.02707
6.33301
3.19605
3.18115
5.54546
5.55726
6.30802
2.01933
3.18764
3.17598
3.19012
3.17659
6.29792
6.1213
6.1295
3.12943
4.10371
4.10738
3.12613
5.53322
5.52192
6.27645
3.18158
3.17134
2.02196
6.28543
3.17899
3.17067
5.49978
5.51035
6.2652
2.0142
3.17038
3.16533
3.17294
3.16601
6.25743
6.09243
6.09915
3.11677
4.09032
4.09363
3.11369
5.48888
5.47895
6.24042
3.16434
3.16073
2.01652
6.24723
3.16181
3.16009
5.45972
5.46884
6.2313
2.00872
3.15352
3.15501
3.15591
3.15556
6.2255
6.06909
6.07449
3.10507
4.07842
4.08136
3.10225
5.45035
5.4419
6.21221
3.14773
3.1506
2.01074
6.21725
3.14544
3.15016
5.42567
5.4333
6.20485
2.00292
3.13777
3.14554
3.13985
3.14587
6.20065
6.05054
6.05481
3.09447
4.06803
4.07059
3.09194
5.41777
5.41076
6.19032
3.13234
3.14136
2.00477
6.19395
3.1304
3.14121
5.39732
5.40359
6.18432
1.99698
3.1235
3.13714
3.1252
3.13716
6.18137
6.03594
6.0393
3.08505
4.05906
4.06128
3.08281
5.39076
5.38502
6.17331
3.11847
3.13324
1.99879
6.17585
3.11692
3.1333
5.37404
5.37912
6.16832
1.99113
3.11081
3.1298
3.11213
3.12958
6.16631
6.02456
6.02717
3.07676
4.0514
4.05325
3.07483
5.36865
5.36403
6.15998
3.10619
3.12617
1.99301
6.16169
3.10503
3.12647
5.35515
5.35921
6.15578
1.98547
3.09965
3.12345
3.10061
3.123
6.1545
6.01571
6.01775
3.06955
4.04489
4.04647
3.06787
5.3507
5.34694
6.14945
3.09537
3.12003
1.98745
6.15054
3.09453
3.12047
5.33974
5.34302
6.14587
1.98005
3.08986
3.11787
3.09048
3.11726
6.14518
6.00888
6.01044
3.06332
4.03939
4.04071
3.06186
5.33664
5.3344
6.14194
3.08601
3.11475
1.98236
6.14196
3.0856
3.11547
6.14028
1.97529
3.08312
3.11438
3.08218
3.11263
6.1453
6.03772
6.01163
3.0584
4.043
4.03729
3.06043
6.39426
3.0859
3.11712
1.99144
6.17668
3.11324
3.14225
6.97362
2.05212
3.76359
3.87629
3.24484
3.26185
9.35607
10.7475
7.8861
3.4806
5.09616
4.54411
4.45078
5.31271
4.89085
4.81647
5.33981
2.94564
2.56577
1.78804
1.86763
2.66151
2.86508
1.91219
11.79
11.7845
11.6199
11.6709
11.7749
11.7802
11.6592
11.6078
11.7573
11.7622
11.6356
11.5845
11.7708
11.7659
11.5961
11.6472
11.754
11.7494
11.5734
11.6242
11.7419
11.7463
11.6132
11.5628
11.7291
11.733
11.5932
11.5435
11.7392
11.7353
11.5529
11.6028
11.7272
11.7235
11.5349
11.584
11.7183
11.7218
11.5756
11.5267
11.7097
11.7128
11.5605
11.5126
11.717
11.7139
11.5195
11.5676
11.709
11.706
11.5063
11.5538
11.7026
11.7054
11.5478
11.5005
11.6973
11.6998
11.5372
11.4906
11.7023
11.6999
11.4954
11.5421
11.6975
11.6951
11.4863
11.5325
11.6931
11.6954
11.5283
11.4823
11.6903
11.6924
11.5212
11.4756
11.6937
11.6917
11.4789
11.5245
11.6913
11.6893
11.4728
11.518
11.6884
11.6902
11.5153
11.4701
11.6874
11.6892
11.5106
11.4658
11.6895
11.6879
11.468
11.5127
11.6889
11.6872
11.4641
11.5086
11.687
11.6886
11.5069
11.4624
11.6873
11.6889
11.5041
11.4599
11.6886
11.6872
11.4612
11.5053
11.6891
11.6876
11.4589
11.5029
11.6878
11.6893
11.502
11.4579
11.6889
11.6904
11.5005
11.4566
11.6897
11.6884
11.4573
11.501
11.691
11.6896
11.4561
11.4999
11.6901
11.6916
11.4994
11.4556
11.6918
11.6932
11.4989
11.4552
11.6923
11.691
11.4555
11.499
11.694
11.6926
11.4551
11.4986
11.6934
11.6948
11.4986
11.455
11.6954
11.6968
11.4986
11.4551
11.6957
11.6944
11.4551
11.4984
11.6977
11.6964
11.4553
11.4987
11.6972
11.6986
11.4988
11.4553
11.6994
11.7008
11.4992
11.4559
11.6996
11.6983
11.4556
11.4989
11.7018
11.7003
11.4562
11.4995
11.7013
11.7027
11.4998
11.4565
11.7038
11.705
11.5006
11.4575
11.7038
11.7025
11.4569
11.5001
11.7064
11.7052
11.4583
11.5012
11.7067
11.7079
11.502
11.4592
11.7107
11.7117
11.5045
11.4621
11.7095
11.7086
11.4608
11.5031
11.7128
11.7112
11.4619
11.505
11.7232
11.7155
11.5034
11.4622
13.4287
12.5845
11.6069
13.0537
11.8039
12.0477
11.5518
11.4981
14.0655
14.5309
15.409
13.438
1.13096
1.12864
0.815678
0.802279
1.12678
0.814525
0.801307
4.52538
4.34324
4.5285
4.34056
1.12514
0.813382
0.800398
1.14565
1.12388
0.812419
0.799577
3.01335
5.01725
3.00922
1.87162
1.87629
2.73101
4.51238
4.33215
4.5157
4.3292
1.12277
0.811459
0.798829
1.1428
1.12196
0.810687
0.798167
3.00175
4.98654
2.99771
1.86618
2.7232
1.87057
2.71952
4.49918
4.32036
4.50245
4.31738
1.12124
0.809897
0.797561
1.14079
1.12075
0.809298
0.797052
2.99035
4.95916
2.98633
1.86144
2.71301
1.86567
2.7097
2.74705
4.60789
2.48662
4.3363
2.74821
4.60494
2.48517
4.48653
4.30871
4.48961
4.30587
1.12028
0.808671
0.79659
1.13937
1.12
0.808232
0.796226
2.97907
4.93469
2.97511
1.85707
2.70411
1.8612
2.70105
2.74285
4.59691
2.48394
4.32477
2.74407
4.59448
2.48235
4.47492
4.29777
4.47772
4.29515
1.11969
0.807749
0.795902
1.13832
1.1195
0.807446
0.795662
2.96807
4.91289
2.96421
1.85288
2.69615
1.85696
2.6933
2.73856
4.5879
2.48081
4.31463
2.73978
4.58592
2.47915
4.46461
4.28784
4.46707
4.2855
1.11926
0.807084
0.795443
1.13749
1.11911
0.806883
0.795304
2.95756
4.89372
2.95387
1.84878
1.85283
2.73433
4.58052
2.47745
4.30592
2.73553
4.57889
2.47577
4.45578
4.27906
4.45784
4.27702
1.11887
0.806616
0.795167
1.13676
1.11871
0.806499
0.795099
2.94774
4.87708
2.94423
1.84475
1.84877
2.73027
4.57446
2.47402
4.29855
2.73141
4.57314
2.47234
4.44853
4.27146
4.45021
4.2697
1.11844
0.806296
0.795018
1.13605
1.11823
0.806236
0.794993
2.93871
2.93542
1.84081
1.8448
2.72645
4.5695
2.47064
4.29237
2.72753
4.56842
2.46894
4.44267
4.26496
4.44402
4.26346
1.11789
0.806073
0.794933
1.1353
1.11761
0.806028
0.794902
2.93052
2.92737
1.83694
1.84091
2.72288
4.56541
2.4674
4.28721
2.72391
4.56452
2.46572
4.43795
4.25946
4.43904
4.25819
1.11719
0.805886
0.794848
1.1345
1.11679
0.80584
0.794775
2.92311
2.92047
1.83331
1.8372
2.71952
4.56205
2.46422
4.28288
2.7205
4.56134
2.46261
4.43414
4.2548
4.43501
4.25373
1.11624
0.805623
0.794613
1.13358
1.11577
0.805511
0.794472
2.71751
4.55978
2.46133
4.28135
2.71762
4.56137
2.46037
4.43787
4.25102
4.43306
4.25111
1.11705
0.805731
0.795657
1.13957
1.12844
0.80931
0.803759
4.40164
4.56277
4.39536
4.39856
4.5596
4.55635
4.39214
4.38866
4.54964
4.55306
4.38182
4.38537
4.54617
4.54262
4.37835
4.37464
4.53537
4.53903
2.56949
2.46391
1.75149
1.69359
2.57115
2.46246
1.75082
4.5222
4.33501
4.33784
4.51897
4.36752
4.37118
4.5317
4.52803
2.5678
1.69175
2.45984
1.74859
2.46099
1.74895
2.5664
4.6115
4.60333
4.60818
3.68128
2.4609
2.46363
3.67978
5.00974
3.00346
3.00751
1.8733
2.72502
2.72893
1.86876
4.36399
4.36029
4.52069
4.52437
2.56327
2.45839
1.7468
1.68952
2.5647
2.45722
1.74658
4.50905
4.3233
4.32627
4.50576
4.35333
4.35689
4.51705
4.51346
2.56175
1.68809
2.45497
1.74507
2.45597
1.7451
2.56048
4.60027
4.59565
3.67797
2.46135
3.67931
2.45871
4.58848
4.59286
3.6777
2.45678
2.45929
3.67653
4.97996
2.99203
2.99604
1.86805
2.71444
2.71792
1.86373
4.34996
4.34644
4.50638
4.5099
2.55748
2.45363
1.74357
1.68679
2.55885
2.45255
1.74358
4.49592
4.31155
4.31446
4.49276
4.33995
4.34327
4.50294
4.49959
2.55598
1.68559
2.45038
1.74239
2.45134
1.74227
2.55474
4.58588
4.58167
3.67539
2.45742
3.67642
2.45498
5.00471
4.57528
4.57929
3.67546
2.45339
2.45573
3.67459
4.95337
2.98071
2.98469
1.8634
2.70526
2.70843
1.85921
3.23824
5.91593
3.88657
3.23988
5.91182
3.88436
2.74616
4.3332
4.59945
2.48385
4.60212
2.48534
2.745
3.23664
5.90408
3.88003
5.90786
3.88221
3.23499
4.33685
4.33363
4.49304
4.49627
2.55177
2.44906
1.74099
1.68471
2.55312
2.44799
1.7411
4.4835
4.30039
4.30311
4.48059
4.32777
4.33076
4.48988
4.48685
2.55029
1.68359
2.44584
1.74
2.44679
1.73984
2.54907
5.00459
5.00483
4.57304
4.56916
3.67403
2.45419
3.67478
2.4519
5.00478
5.00458
4.5634
4.5671
3.67436
2.45058
2.45278
3.67373
3.84919
3.84768
5.94503
5.94178
3.84462
3.84612
5.93557
5.93864
4.92957
2.96963
2.97353
1.85907
2.69709
2.70003
1.85494
2.00468
3.22176
2.34922
3.96659
2.00565
3.22027
2.34781
2.00484
3.96435
3.21748
2.34666
3.21893
2.34808
2.00391
3.23174
5.90046
3.8779
3.2334
5.89704
3.87575
2.74192
4.32201
4.58998
2.48082
4.59218
2.48241
2.74073
3.23014
5.89068
3.8716
5.89378
3.87367
3.22852
4.325
4.32211
4.48095
4.48385
2.54615
2.44453
1.73862
1.68286
2.54747
2.44347
1.73874
4.47221
4.29019
4.29265
4.46961
4.31694
4.31959
4.47813
4.47543
2.54469
1.68175
2.44136
1.73764
2.44229
1.73749
2.54351
5.00463
5.00479
4.56144
4.55786
3.67361
2.45149
3.67416
2.44932
3.84309
3.84161
5.93262
5.92978
3.83867
3.84011
5.92439
5.92704
4.9084
2.95899
2.96275
1.85489
2.68972
2.69247
1.85081
2.00295
3.21618
2.34683
3.95813
2.00397
3.21474
2.34532
2.00306
3.95611
3.21208
2.34401
3.21347
2.34551
2.00205
3.22537
5.88773
3.8696
3.22697
5.88496
3.86759
2.73763
4.31224
4.58223
2.4775
4.58402
2.47914
2.73645
3.22385
5.87983
3.86377
5.88232
3.86567
3.22231
4.31454
4.31199
4.47025
4.4728
2.54068
2.44007
1.73624
1.68107
2.54196
2.43905
1.73635
4.46224
4.28112
4.28329
4.46
4.30751
4.30982
4.46778
4.46543
2.53926
1.67995
2.43701
1.7352
2.4379
1.73506
2.53806
3.83722
3.83583
5.92185
5.9194
3.83306
3.83441
5.9148
5.91706
4.88987
2.94898
2.95256
1.8508
1.84674
2.00101
3.21086
2.34412
3.95061
2.0021
3.2095
2.34256
2.00111
3.94884
3.20704
2.34117
3.20833
2.3427
2.00007
3.21936
5.87747
3.86194
3.22085
5.87525
3.86012
2.73344
4.30387
4.57587
2.47408
4.57733
2.47573
2.7323
3.21795
5.87117
3.85668
5.87315
3.85839
3.21653
4.30544
4.30324
4.46096
4.46315
2.53538
2.43577
1.73378
1.67924
2.53661
2.4348
1.73387
4.45381
4.27323
4.2751
4.45197
4.29941
4.30139
4.45886
4.45687
2.53402
1.67811
2.43286
1.73266
2.4337
1.73256
2.5329
3.83171
3.83041
5.91264
5.91056
3.82785
3.82909
5.90667
5.90858
4.87383
2.93975
2.94312
1.84678
1.84275
1.99896
3.20593
2.34125
3.94407
2.00009
3.20469
2.33966
1.99904
3.94254
3.20246
2.33825
3.20363
2.33979
1.99798
3.21384
5.86929
3.85506
3.2152
5.86753
3.85344
2.72944
4.29681
4.57065
2.47067
4.57185
2.47231
2.72835
3.21256
5.8643
3.85041
5.86587
3.85191
3.21127
4.2976
4.29578
4.45311
4.45494
2.5304
2.43168
1.73125
1.67737
2.53153
2.43077
1.73132
4.44694
4.26646
4.26806
4.44545
4.29257
4.29418
4.45136
4.44974
2.52914
1.67624
2.42898
1.73009
2.42974
1.73001
2.52813
5.90485
2.93136
2.93452
1.84284
1.83884
1.99685
3.20147
2.33833
3.93845
1.99799
3.20028
2.33671
1.99689
3.93713
3.19836
2.33535
3.19934
2.33688
1.99582
3.20884
5.86281
3.84898
3.21006
5.86142
3.84755
2.72568
4.2909
4.56638
2.46736
4.56736
2.46901
2.72462
3.2077
5.85887
3.8449
5.86011
3.84622
3.20654
4.29105
4.28951
4.44672
4.44818
2.52586
2.42787
1.7287
1.67546
2.52687
2.42704
1.72876
4.44139
4.26072
4.26208
4.4402
4.28686
4.2882
4.44533
4.44405
2.52472
1.67434
2.4254
1.72751
2.42609
1.72745
2.52382
2.92365
2.92665
1.83903
1.83508
1.99468
3.19739
2.33541
3.93364
1.99579
3.19636
2.33384
1.99468
3.9325
3.19452
2.33244
3.1955
2.33395
1.99357
3.20436
5.85769
3.84365
3.20547
5.85659
3.84241
2.72218
4.28596
4.56283
2.46417
4.56364
2.46578
2.72118
3.20333
5.85457
3.84008
5.85557
3.84124
3.2023
4.2856
4.28426
4.44167
4.44282
2.52175
2.42435
1.72608
1.6735
2.52267
2.42357
1.72614
4.4369
4.25586
4.25703
4.43593
4.28205
4.28317
4.44056
4.43954
2.52071
1.67238
2.42196
1.72492
2.42269
1.72485
2.51986
5.89267
5.89149
5.88967
5.89044
1.99232
3.1937
2.33252
3.92955
1.99352
3.19267
2.33096
1.99229
3.92863
3.19098
2.3295
3.1919
2.33109
1.99101
3.20034
5.85369
3.83901
3.20135
5.85279
3.83792
2.719
4.28184
4.56013
2.46118
4.56069
2.46276
2.71809
3.19955
5.85131
3.83592
5.85206
3.83693
3.19864
4.28099
4.27984
4.43764
4.43856
2.51805
2.42107
1.72355
1.67157
2.51884
2.42039
1.72361
4.43336
4.25181
4.25276
4.43276
4.28214
4.27949
4.43683
4.43675
2.51716
1.67051
2.41906
1.72256
2.41956
1.7224
2.51651
3.19877
5.85086
3.83505
3.19806
5.85292
3.83459
4.63603
2.48705
2.74526
2.72223
4.29403
4.57457
2.46545
5.99734
3.90042
3.24587
3.20681
5.8782
3.84212
4.29547
4.33771
4.45438
4.44017
2.51772
2.41845
1.72166
1.67097
2.51608
2.41935
1.72286
4.34105
4.53789
4.45973
4.26617
4.64585
4.45032
4.59812
4.49797
2.45835
1.74262
2.55862
2.52635
1.6743
2.42639
1.72685
2.68253
2.52591
1.88034
2.52158
1.87889
1.68546
1.68933
1.04191
0.939303
2.68011
2.5124
1.87666
2.50999
1.876
1.67635
1.67866
0.93727
0.760186
0.705052
1.03805
0.935483
0.759279
0.704144
2.67746
2.50457
1.8757
2.50295
1.87552
1.67188
1.67323
0.933907
0.758426
0.703274
1.03522
0.932605
0.757607
0.702422
2.6734
2.49903
1.87612
2.49771
1.87609
1.67
1.67084
0.931512
0.756869
0.701621
1.03332
0.930687
0.756183
0.700852
2.66789
2.49433
1.87676
2.49311
1.87666
1.66937
1.66999
0.930061
0.75558
0.700155
1.03217
0.929663
0.755045
0.69951
2.66139
2.48991
1.87693
2.48872
1.87664
1.66921
1.66977
1.07495
0.726292
0.790619
0.983806
1.07465
0.725857
0.790244
0.929422
0.754588
0.698952
1.03155
0.929359
0.754201
0.698457
0.970184
0.747868
0.969463
0.747363
1.64293
2.29648
1.23629
1.62892
1.6433
2.29616
1.23596
2.65441
2.48557
1.87631
2.48439
1.87582
1.66906
1.66964
0.883791
0.564036
0.675184
0.717388
0.883546
0.563751
0.674906
1.0744
0.725452
0.789833
0.983105
1.07426
0.725121
0.789586
0.929394
0.753883
0.698046
1.03128
0.929561
0.753621
0.6977
0.969009
0.746924
0.968502
0.746501
1.64251
2.29457
1.23546
1.62787
1.64291
2.2942
1.2352
2.6473
2.48129
1.87492
2.48013
1.87425
1.66871
1.66935
0.883299
0.563584
0.674677
0.716881
0.883147
0.56332
0.674456
1.07415
0.72481
0.78929
0.982669
1.07411
0.724563
0.789144
0.929769
0.753425
0.697435
1.03119
0.930062
0.753275
0.697226
0.968239
0.746144
0.967906
0.7458
1.64194
2.29248
1.23483
1.62681
1.64239
2.29207
1.23462
2.64041
2.47709
1.87289
2.47595
1.87208
1.66806
1.66879
0.882979
0.563174
0.67428
0.716487
0.8829
0.562934
0.674111
1.07405
0.724332
0.788945
0.982419
1.07406
0.724158
0.788886
0.930357
0.753173
0.697087
1.03116
0.930698
0.753099
0.696984
0.9678
0.745533
0.967589
0.745275
1.64121
2.29028
1.23436
1.62572
1.64172
2.28985
1.23415
2.63387
2.47299
1.8704
2.47189
1.86951
1.66715
1.66794
0.882786
0.562812
0.673982
0.716189
0.882745
0.562589
0.673853
1.07402
0.723992
0.788757
0.982263
1.07403
0.723877
0.788757
0.931006
0.753067
0.696948
1.03109
0.931333
0.753037
0.696918
2.62779
2.46908
1.86761
2.46802
1.86665
1.66597
1.66682
0.882645
0.562476
0.673751
0.71593
0.882604
0.562255
0.673637
1.07398
0.723757
0.788676
0.982128
1.07395
0.723667
0.788696
0.931603
0.753048
0.696956
1.03092
0.931866
0.753034
0.696966
2.62218
2.46535
1.86465
2.4643
1.86364
1.66455
1.66548
0.882479
0.562141
0.673543
0.715608
0.882371
0.56188
0.673401
1.07386
0.723569
0.788645
0.981905
1.07379
0.723474
0.788671
0.932061
0.753018
0.697007
1.03056
0.932179
0.752927
0.696966
2.61709
2.46178
1.86157
2.46085
1.8605
1.66289
1.66394
0.882115
0.561644
0.673178
0.71489
0.88172
0.561197
0.672823
1.07362
0.723262
0.788515
0.981404
1.07342
0.723019
0.788429
0.9322
0.752935
0.697024
1.03012
0.932143
0.753098
0.697178
2.61169
2.45976
1.85815
2.46348
1.85704
1.66456
1.66306
1.07346
0.722911
0.78861
0.984252
1.07814
0.724801
0.791474
0.935167
0.756682
0.699204
1.08586
0.992277
0.789718
0.733641
3.15852
1.97093
1.92173
0.991222
6.612
4.36831
6.60849
6.54012
4.04331
4.02739
6.65952
4.36199
6.59078
6.5945
6.63885
4.02332
4.03947
6.51897
4.51424
3.75977
4.52868
3.29596
2.81564
2.82231
3.2751
3.7534
4.5356
4.52337
3.28557
2.82108
2.81377
3.30643
1.98828
1.58743
2.28776
1.44001
2.29134
1.44367
1.98341
6.58848
4.3548
6.58476
6.51141
4.03768
4.0213
6.63131
4.34681
6.56731
6.57087
6.60832
4.01437
4.03084
6.48856
4.52386
3.75292
4.53502
3.30913
2.81375
2.82106
3.28855
1.97573
2.28498
1.43844
1.58102
1.97952
2.28217
1.4353
3.74455
4.52789
4.51795
3.29371
2.82082
2.81361
3.31342
1.97289
1.58066
2.27792
1.43167
2.28012
1.43427
1.97003
6.56529
4.33889
6.56183
6.48125
4.02818
4.01158
6.60092
4.33019
6.5466
6.54975
6.57987
4.003
4.01949
6.46052
4.5145
3.74241
4.52384
3.31365
2.81336
2.82046
3.2943
1.9655
2.27628
1.43103
1.57639
1.96784
2.27441
1.42878
3.73174
4.50995
4.50091
3.29253
2.8182
2.81139
3.3111
1.96389
1.57661
2.27153
1.42667
2.27314
1.42855
1.96205
6.54503
4.3222
6.54199
6.4542
4.01645
3.99988
6.57343
4.31382
6.52959
6.53227
6.55566
3.99091
4.00723
6.43675
4.49596
3.72863
4.50463
3.30939
2.8104
2.81707
3.29111
1.95906
2.2704
1.42668
1.57368
1.9607
2.2689
1.42502
3.71705
4.48895
4.48007
3.28461
2.81265
2.80623
3.3024
1.95801
1.57422
2.26656
1.42387
2.26793
1.4253
1.95663
6.52852
4.30627
6.52596
6.43155
4.00419
3.98782
6.55037
4.29888
6.5165
6.51869
6.53598
3.97925
3.99532
6.41741
4.47491
3.71373
4.48358
3.29962
2.8046
2.8109
3.28203
1.95429
2.2656
1.42427
1.57202
1.95564
2.26423
1.42296
3.70227
4.46881
4.45963
3.27317
2.80501
2.79887
3.2905
1.95346
1.57272
2.26204
1.42234
2.26335
1.42351
1.95224
6.51589
4.29202
6.51379
6.41327
3.99249
3.97638
6.53176
4.28586
6.50691
6.50871
6.52036
3.96864
3.98443
6.40204
4.45498
3.6992
4.46397
3.28738
2.79688
2.80295
3.27014
1.95011
2.26112
1.42292
1.57081
1.95137
2.25978
1.42177
3.68839
4.451
4.44151
3.2608
2.79653
2.79051
3.27796
1.94934
1.57156
2.2576
1.42135
2.25891
1.42244
1.94816
6.5067
4.27974
6.50498
6.39879
3.98191
3.96607
6.51705
4.27477
6.5001
6.5016
6.50813
3.95928
3.97481
6.38998
4.43748
3.68577
4.44677
3.27489
2.78841
2.79438
3.2578
1.94606
2.25669
1.42201
1.56968
1.94731
2.25534
1.4209
3.67582
4.43562
4.42582
3.24878
2.78792
2.78194
3.26589
1.94529
1.57041
2.25316
1.42053
2.25447
1.4216
1.9441
6.50019
4.26932
6.49875
6.38744
3.97261
3.95703
6.50557
4.26541
6.49539
6.49666
6.49863
3.95117
3.96646
6.38057
4.42238
3.67373
4.43198
3.26302
2.77987
2.78581
3.24596
1.94199
2.25225
1.42118
1.56844
1.94325
2.25091
1.42005
3.66472
4.42256
4.41246
3.23762
2.77959
2.77362
3.25474
1.94121
1.56912
2.24876
1.41963
2.25003
1.42072
1.94002
6.4957
4.26056
6.49447
6.3786
3.96457
3.94923
6.49666
4.25758
6.49225
6.49334
6.49129
3.94424
3.95932
6.37326
4.40958
3.66318
4.41949
3.25214
2.77164
2.77759
3.23506
1.93791
2.24784
1.42022
1.56702
1.93917
2.24654
1.41907
3.65507
4.41165
4.40127
3.22756
2.77183
2.76583
3.24472
1.93714
1.56764
2.24444
1.41856
2.24569
1.41968
1.93596
6.49273
4.25323
6.49166
6.37173
3.95771
3.94257
6.48976
4.25106
6.49028
6.49124
6.48562
3.93833
3.95323
6.36758
4.39883
3.65405
4.40909
3.24242
2.76399
2.76998
3.22528
1.93386
2.24357
1.4191
1.56541
1.93512
2.2423
1.41789
3.64678
4.40257
4.39194
3.21864