/*--------------------------------*- C++ -*----------------------------------*\
  =========                 |
  \\      /  F ield         | OpenFOAM: The Open Source CFD Toolbox
   \\    /   O peration     | Website:  https://openfoam.org
    \\  /    A nd           | Version:  10
     \\/     M anipulation  |
\*---------------------------------------------------------------------------*/
FoamFile
{
    format      ascii;
    class       volScalarField;
    location    "2000";
    object      p;
}
// * * * * * * * * * * * * * * * * * * * * * * * * * * * * * * * * * * * * * //

dimensions      [0 2 -2 0 0 0 0];

internalField   nonuniform List<scalar> 
8649
(
-0.0640762
-0.0561778
-0.0711285
-0.0559846
-0.0504013
-0.0536359
-0.0428889
-0.0506881
-0.0547023
-0.0646802
-0.0505299
-0.0438163
-0.0472389
-0.0384141
-0.0460476
-0.0415496
-0.0491064
-0.059963
-0.0461041
-0.0356132
-0.0388014
-0.0424983
-0.034228
-0.0293103
-0.107401
-0.0427225
-0.0393412
-0.0449786
-0.0563848
-0.0431913
-0.0335535
-0.0352675
-0.0394413
-0.0318398
-0.0270794
-0.105318
-0.0251202
-0.0400832
-0.0373993
-0.0129132
-0.0418136
-0.0536869
-0.0409189
-0.0318676
-0.0121019
-0.0322726
-0.0370277
-0.030235
-0.0253565
-0.103629
0.0557623
-0.02161
-0.038094
-0.0357287
0.0479484
0.0263965
-0.00997273
-0.0392874
-0.0516962
-0.0391501
-0.030709
0.00742396
-0.0092226
-0.0298759
-0.0349726
-0.0285984
-0.0239256
-0.102346
0.0592878
-0.0186121
-0.0365486
-0.0343845
0.0514411
0.0295219
-0.00739599
-0.0371993
-0.0499881
-0.0376774
-0.0296046
0.010342
-0.00673205
-0.0278022
-0.0333222
-0.0273023
-0.0226297
-0.101422
0.0622753
-0.0161482
-0.0352337
-0.0339772
0.0542751
0.0321634
-0.00528026
-0.0354879
-0.0486302
-0.0364711
-0.0289621
0.0126065
-0.00473741
-0.0262132
-0.0318442
-0.0258144
-0.0214758
-0.100575
0.0647111
-0.013968
-0.0340508
-0.0325699
0.0570868
0.034519
-0.00325358
-0.033817
-0.0475217
-0.0351409
-0.0278581
0.0151793
-0.00229499
-0.0243068
-0.0310609
-0.0247325
-0.0204952
-0.0997414
-0.0120425
-0.0327169
-0.0334312
0.0585567
0.0361254
-0.00169436
-0.0323454
-0.0460507
-0.0344739
-0.0263938
0.0159451
-0.00157734
-0.0231913
-0.0273408
-0.0216165
-0.017577
-0.00942031
-0.0321703
-0.0209745
0.0653913
0.0397087
0.00219378
-0.0298919
-0.0465431
-0.030592
-0.0246153
0.0239293
0.00705244
-0.0188242
-0.0356321
-0.0265401
-0.0188148
-0.00758988
-0.0350456
-0.0825019
0.0473186
0.0328679
0.000668225
-0.0301631
-0.0421279
-0.0638711
-0.0248415
0.00400492
-0.00968387
-0.0267146
0.00233158
0.00447655
0.00815744
0.00945603
-0.0373305
0.148372
0.0241575
-0.0101652
-0.0709077
0.0322884
0.022628
0.0677842
0.00445287
-0.188303
-0.0843785
-0.061292
-0.321752
-0.162223
-0.00961859
-0.096125
-0.168473
-0.087664
-0.162524
-0.0817263
-0.15751
-0.0769607
-0.154058
-0.0735513
-0.151386
-0.0708825
-0.149446
-0.0689759
-0.147991
-0.0675062
-0.146851
-0.0663418
-0.145856
-0.0652775
-0.144853
-0.0642071
-0.144401
-0.0638941
-0.14667
-0.0663774
-0.154453
-0.0775237
-1.1293
-0.192079
-0.0494642
-0.0677078
-0.101554
-0.148122
-0.0807236
-0.0685626
-0.0415197
-0.0621882
-0.0934737
-0.0819071
-0.0690505
-0.142471
-0.0738413
-0.0630006
-0.035958
-0.0572516
-0.100675
-0.0879247
-0.0752812
-0.0635191
-0.137688
-0.0680903
-0.0574792
-0.0310578
-0.0858701
-0.0536795
-0.0981878
-0.0833488
-0.0700766
-0.0582885
-0.134385
-0.0638488
-0.0539724
-0.0274503
-0.0836724
-0.0506764
-0.0963117
-0.0800894
-0.0660501
-0.0552339
-0.13176
-0.0607032
-0.0515256
-0.0244105
-0.0818431
-0.0483747
-0.0948593
-0.0775222
-0.063125
-0.0529919
-0.129826
-0.0584183
-0.0498198
-0.0220981
-0.0804908
-0.0466019
-0.093771
-0.0757041
-0.0608981
-0.0513779
-0.128356
-0.0565241
-0.0485052
-0.0202788
-0.0795217
-0.0451759
-0.0929514
-0.0742991
-0.0590368
-0.0501216
-0.127156
-0.0549828
-0.047472
-0.0187663
-0.0788256
-0.0438829
-0.0922499
-0.0732042
-0.0574743
-0.0491122
-0.126119
-0.0535339
-0.0465604
-0.0173758
-0.078129
-0.0426025
-0.0914013
-0.0721581
-0.056142
-0.0482122
-0.125033
-0.0521811
-0.0455995
-0.0159681
-0.0774612
-0.0417839
-0.0895058
-0.0711272
-0.0546681
-0.0472193
-0.124588
-0.0511736
-0.0450444
-0.0152774
-0.0748639
-0.0436585
-0.0903808
-0.0707855
-0.0543111
-0.0470726
-0.126997
-0.0513417
-0.048086
-0.0174268
-0.0789794
-0.0464001
-0.0265502
-0.073395
-0.0526437
-0.0504943
-0.135557
-0.0647434
-0.0596086
-0.0220725
0.0327218
-0.564312
-0.0194256
-0.0834676
-0.0716056
-0.0461065
-0.999418
-0.387388
-0.715686
-0.275165
-0.118072
-0.107953
-0.229606
-0.0924798
-0.125164
-0.0871935
-0.172223
-0.0833476
-0.0911725
-0.0778589
-0.0805521
-0.0755209
-0.165443
-0.0731453
-0.0843084
-0.0692626
-0.0712958
-0.0674322
-0.159804
-0.0654735
-0.0790777
-0.0624111
-0.064015
-0.0610593
-0.155651
-0.0597426
-0.0750672
-0.057546
-0.058822
-0.0564986
-0.152671
-0.0553805
-0.0720952
-0.0538244
-0.054769
-0.0530468
-0.150328
-0.0521709
-0.0698026
-0.0510733
-0.0517879
-0.0504799
-0.148671
-0.0497567
-0.0681481
-0.048928
-0.0495021
-0.0484361
-0.147385
-0.0478359
-0.0668568
-0.0472281
-0.047677
-0.0467804
-0.146323
-0.0462109
-0.0657463
-0.0457149
-0.0461524
-0.0453194
-0.145347
-0.0447538
-0.0646862
-0.0442938
-0.0447305
-0.0439486
-0.144404
-0.0433272
-0.0637779
-0.0434048
-0.0436456
-0.0436827
-0.145015
-0.0435974
-0.0646917
-0.0453214
-0.0446674
-0.0465872
-0.147998
-0.050682
-0.0684683
-0.0818291
-0.0511646
-0.00265207
-0.235362
-0.295463
-0.187237
-4.24854
0.491642
-0.467607
-0.0572426
-0.0538567
-0.0508628
-0.0515191
-0.0489094
-0.0452407
-0.0465105
-0.0886689
-0.0433134
-0.0731956
-0.0853653
-0.0404586
-0.0685514
-0.0429703
-0.0858131
-0.0393276
-0.0702351
-0.0830655
-0.0370363
-0.0661883
-0.0401911
-0.0835991
-0.0363349
-0.0679417
-0.0810135
-0.0342943
-0.0640159
-0.0380399
-0.0818717
-0.0340063
-0.066101
-0.0795868
-0.0323536
-0.0625611
-0.0364039
-0.0806818
-0.0323805
-0.0649058
-0.0785238
-0.030938
-0.061537
-0.0351234
-0.0797644
-0.0311369
-0.0640221
-0.0777738
-0.029809
-0.0608726
-0.0339426
-0.0790557
-0.0301864
-0.0634236
-0.0769838
-0.0289142
-0.0602443
-0.0327637
-0.0781693
-0.0291675
-0.0626315
-0.0762069
-0.0277161
-0.0595196
-0.0318552
-0.0765633
-0.0284721
-0.0614383
-0.0746673
-0.0272527
-0.057517
-0.0336807
-0.0778925
-0.0301455
-0.063234
-0.0775694
-0.0366049
-0.0728186
-0.033342
-0.0400025
-0.0381288
-0.0420428
0.0482843
-0.00182918
0.0441657
-0.417087
0.0948666
-0.183735
0.0490104
-0.271991
-0.119311
0.152363
-0.174791
-0.200854
-0.270796
-0.0894202
-0.193839
-0.263642
-0.111566
0.160482
-0.109566
0.162646
-0.16699
-0.192146
-0.261652
-0.083195
-0.187384
-0.256142
-0.104537
0.168195
-0.102916
0.170061
-0.161158
-0.185898
-0.2544
-0.0780098
-0.182152
-0.249704
-0.0988624
0.174795
-0.0977321
0.176254
-0.156587
-0.181132
-0.248305
-0.0743217
-0.178624
-0.24486
-0.0949579
0.179923
-0.0941516
0.181169
-0.153392
-0.177885
-0.243795
-0.0715036
-0.176011
-0.240952
-0.092082
0.184204
-0.0914395
0.185262
-0.150893
-0.175477
-0.240083
-0.0694155
-0.174178
-0.238034
-0.0899818
0.187591
-0.0895277
0.188386
-0.149108
-0.173821
-0.237397
-0.0678573
-0.172881
-0.235834
-0.0884603
0.190198
-0.0881018
0.190873
-0.147735
-0.172602
-0.235313
-0.0666603
-0.171901
-0.234098
-0.0873138
0.19231
-0.0869887
0.19291
-0.14663
-0.171654
-0.233635
-0.0655901
-0.171054
-0.232616
-0.0863055
0.194157
-0.0859911
0.194717
-0.145663
-0.170838
-0.232207
-0.0645413
-0.170195
-0.231224
-0.0853221
0.195869
-0.0849818
0.196386
-0.144665
-0.169978
-0.230845
-0.0638301
-0.169842
-0.230436
-0.0846884
0.197079
-0.0847209
0.197091
-0.144677
-0.170075
-0.230661
-0.0655156
-0.172103
-0.232551
-0.0863965
0.195689
-0.0871764
0.194825
-0.14746
-0.172855
-0.233869
-0.0718095
-0.179285
-0.243932
-0.0914017
0.179955
-0.098998
0.199738
-0.177074
-0.200756
-0.270612
-0.619814
-1.10225
-2.44055
-0.478075
-1.07181
-0.252666
0.196578
0.149929
0.0662985
0.521192
-0.0712424
-0.0649944
-0.0629841
-0.0449161
-0.0598854
-0.0613916
-0.0780887
-0.151766
-0.0746073
-0.0761576
-0.0808162
-0.0797543
-0.077722
-0.0966833
-0.069981
-0.0724011
-0.0750232
-0.0742759
-0.0765435
-0.0721725
-0.0647333
-0.0580027
-0.0566447
-0.0385654
-0.0541696
-0.0553617
-0.0681652
-0.145235
-0.0660379
-0.0687193
-0.0733792
-0.0713099
-0.0712605
-0.0903553
-0.0627937
-0.0646534
-0.0682054
-0.0687644
-0.0707218
-0.0658513
-0.0595254
-0.0523546
-0.0510824
-0.0332436
-0.04896
-0.0499064
-0.061364
-0.139897
-0.0595819
-0.0629592
-0.0679993
-0.0652348
-0.0659592
-0.0853269
-0.0569715
-0.0584721
-0.0626076
-0.0637508
-0.0655364
-0.0605782
-0.0553212
-0.0474264
-0.0465517
-0.029083
-0.0450287
-0.045615
-0.0559483
-0.135918
-0.0547907
-0.0585975
-0.0633176
-0.060323
-0.0617145
-0.081499
-0.0528953
-0.0541721
-0.0586996
-0.0602089
-0.0616786
-0.0569526
-0.0521141
-0.0437284
-0.0430556
-0.0258234
-0.0418987
-0.0423206
-0.0520957
-0.133039
-0.0509985
-0.0553672
-0.0600778
-0.0569484
-0.0587233
-0.0786835
-0.0497113
-0.0506502
-0.0557031
-0.057608
-0.0589087
-0.0542137
-0.0494338
-0.0407014
-0.04025
-0.0231433
-0.0394475
-0.0396799
-0.0491613
-0.130714
-0.0482649
-0.0529835
-0.0576603
-0.0543902
-0.0564658
-0.0764929
-0.0473406
-0.0481016
-0.0534695
-0.0556443
-0.0567965
-0.0521492
-0.0474409
-0.0384121
-0.0381427
-0.021119
-0.0375805
-0.0376944
-0.0469183
-0.129047
-0.046135
-0.051142
-0.0557989
-0.0524205
-0.0547148
-0.0749109
-0.045419
-0.0460602
-0.0516807
-0.0540801
-0.0551327
-0.0505074
-0.0458385
-0.0366473
-0.0364682
-0.0194897
-0.0360511
-0.0361283
-0.0450646
-0.127724
-0.0443907
-0.049653
-0.0543011
-0.0507934
-0.053298
-0.0736771
-0.0438647
-0.04438
-0.0502092
-0.0528196
-0.0537978
-0.0492099
-0.0444541
-0.0351997
-0.0350851
-0.0180222
-0.0347443
-0.0348209
-0.0435229
-0.126625
-0.0428553
-0.0482938
-0.0530495
-0.0494647
-0.0520898
-0.0725979
-0.0424138
-0.0429557
-0.0490288
-0.0516861
-0.0526309
-0.0479152
-0.0431996
-0.033953
-0.0337949
-0.016635
-0.0334193
-0.0335316
-0.0421304
-0.125609
-0.0414407
-0.047009
-0.0519269
-0.0482666
-0.0509537
-0.0715505
-0.0410304
-0.04158
-0.04782
-0.0505384
-0.0515245
-0.0466506
-0.0419703
-0.0326264
-0.0324105
-0.0154218
-0.0322226
-0.0322681
-0.0408025
-0.12462
-0.0399883
-0.045657
-0.0507937
-0.0470642
-0.0497357
-0.0706544
-0.0401645
-0.0405292
-0.0468263
-0.0499088
-0.0505749
-0.0459872
-0.0421643
-0.0317999
-0.0320055
-0.0158111
-0.0329367
-0.0325092
-0.0405724
-0.125237
-0.0402979
-0.0460725
-0.050571
-0.0468942
-0.0501
-0.0716214
-0.0420169
-0.0415566
-0.0480933
-0.0521618
-0.0520124
-0.0479497
-0.0439129
-0.0322865
-0.0278328
-0.0174164
-0.00611092
-0.0206438
-0.0432915
-0.128536
-0.0467708
-0.0516182
-0.0538099
-0.0494974
-0.0542787
-0.0754354
-0.0710173
-0.0482444
-0.0540078
-0.0661744
-0.0578649
-0.0716929
-0.121819
0.00533331
0.0174987
-0.137497
-0.00524362
-0.139066
-0.00532054
-0.222691
-0.288604
-0.265121
-0.0666358
-0.0356831
-0.16297
-0.210663
-3.52135
0.250347
0.0424369
-1.11855
-0.17886
-2.43754
-1.38607
-0.116595
1.22197
0.0588713
-0.0507541
-0.0933098
-0.19802
-0.267922
-0.116161
0.155574
-0.170511
-0.113685
0.1582
-0.196016
-0.265846
-0.0858883
-0.190426
-0.259622
-0.107638
0.164629
-0.164128
-0.105952
0.166504
-0.189015
-0.258025
-0.0802227
-0.184522
-0.252596
-0.101317
0.171764
-0.158843
-0.100076
0.173313
-0.183427
-0.251254
-0.0758022
-0.180199
-0.247011
-0.0965654
0.177621
-0.155039
-0.0957554
0.178716
-0.179509
-0.246058
-0.072649
-0.177217
-0.242716
-0.0932706
0.18228
-0.152226
-0.0926833
0.18318
-0.176734
-0.241974
-0.0701904
-0.174972
-0.239229
-0.0907813
0.186142
-0.150079
-0.0903722
0.186842
-0.1747
-0.238757
-0.0684162
-0.173459
-0.23673
-0.0890195
0.189069
-0.148528
-0.0887437
0.189598
-0.173301
-0.236417
-0.0670284
-0.172333
-0.234772
-0.087679
0.191432
-0.147344
-0.087502
0.191834
-0.172271
-0.234585
-0.0658814
-0.171419
-0.233162
-0.0865945
0.193417
-0.146314
-0.086454
0.193734
-0.171394
-0.233046
-0.0648676
-0.170584
-0.231741
-0.0856519
0.195163
-0.145332
-0.0854613
0.195463
-0.170554
-0.231663
-0.063796
-0.169773
-0.230443
-0.0846614
0.196849
-0.144596
-0.0846165
0.19693
-0.169933
-0.230643
-0.0639556
-0.170461
-0.230869
-0.0848834
0.197097
-0.146021
-0.08554
0.196403
-0.171412
-0.231888
-0.0671026
-0.173293
-0.235506
-0.0877854
0.193081
-0.150501
-0.0885356
0.191813
-0.175119
-0.240178
-0.129177
-0.261174
-0.315796
-0.143236
0.0678964
-0.472564
-0.208879
0.223628
-0.483156
-0.664969
-0.07969
-0.116461
-0.113201
-0.0935227
-0.0970312
-0.117417
-0.0796751
-0.0726929
-0.107581
-0.105253
-0.0862486
-0.111657
-0.0889027
-0.10876
-0.0519316
-0.0729387
-0.0535427
-0.0667679
-0.100337
-0.0982606
-0.0801229
-0.104392
-0.082498
-0.101897
-0.0621642
-0.0447923
-0.10564
-0.0556645
-0.0604145
-0.0405977
-0.0457323
-0.0674518
-0.0483251
-0.0621442
-0.0943686
-0.0927858
-0.0753657
-0.0986092
-0.0772945
-0.0964955
-0.056269
-0.0596311
-0.0425061
-0.103404
-0.0536965
-0.0584569
-0.0385707
-0.0408975
-0.0632394
-0.0445712
-0.0590068
-0.0899211
-0.0884996
-0.0716044
-0.0942448
-0.073393
-0.092414
-0.0544231
-0.0579193
-0.0405513
-0.101591
-0.051935
-0.0569362
-0.0366542
-0.0128326
-0.0196419
-0.0180737
-0.011855
-0.0252648
-0.0373516
-0.0603595
-0.0416606
-0.0567254
-0.0866146
-0.0854169
-0.0689281
-0.0910126
-0.0705424
-0.0893972
-0.0527075
-0.056401
-0.0385865
-0.10014
-0.0503942
-0.055689
-0.0348507
-0.0373926
0.0251614
-0.0212465
0.0542994
-0.0301824
0.0267169
-0.0200355
-0.00982105
-0.0168688
-0.0149289
-0.00891395
-0.0228669
-0.0345967
-0.058112
-0.0393241
-0.0549613
-0.0841365
-0.0830857
-0.0668656
-0.0885094
-0.0683714
-0.087014
-0.0513955
-0.0554367
-0.0370768
-0.0991531
-0.0549237
-0.0335574
-0.0343757
0.0282718
-0.0183762
0.0573791
-0.0275552
0.0295947
-0.0174137
-0.00714289
-0.0144911
-0.0123324
-0.00648446
-0.0208268
-0.0322858
-0.0563344
-0.0373223
-0.053386
-0.0821805
-0.0812435
-0.0651974
-0.0864661
-0.0666121
-0.085049
-0.0549196
-0.0360608
-0.0983763
-0.0544858
-0.0326543
-0.0318888
0.0309383
-0.0159817
0.0599947
-0.0252922
0.0320064
-0.0152139
-0.00502208
-0.0125643
-0.0100845
-0.00447633
-0.0189822
-0.0304123
-0.0548566
-0.0355367
-0.0520236
-0.080612
-0.0796887
-0.0637301
-0.0847874
-0.0651715
-0.083377
-0.0542891
-0.0350148
-0.0975393
-0.0539218
-0.031508
-0.0297151
0.0332013
-0.0137872
0.0622068
-0.0233108
0.0340235
-0.0133074
-0.00310078
-0.0107916
-0.00807424
-0.00266126
-0.0173059
-0.0287159
-0.0535261
-0.0338694
-0.0506567
-0.0792573
-0.0783484
-0.0624579
-0.0832797
-0.0638978
-0.0819218
-0.0541244
-0.0344658
-0.0523399
-0.0297079
-0.0278271
-0.0120373
-0.0210355
-0.0111944
-0.00143512
-0.00913941
-0.00554474
-0.000336912
-0.0148862
-0.0270943
-0.0521554
-0.0316644
-0.0495675
-0.0779574
-0.0770325
-0.0611671
-0.0817409
-0.0625992
-0.0804828
-0.0483932
-0.0286298
-0.0518145
-0.028973
-0.0254315
-0.00939091
-0.0197509
-0.00962278
0.00144822
-0.00636558
-0.00376731
0.00153545
-0.0131222
-0.0246564
-0.0512728
-0.0302242
-0.0489072
-0.0777344
-0.0773701
-0.0614867
-0.0811573
-0.0624139
-0.08025
-0.0655716
-0.0493446
-0.0255997
-0.0244723
-0.0243737
-0.00947406
-0.0116137
-0.00761674
0.00264567
-0.00552584
0.00709499
0.0097981
0.000481504
-0.0239719
-0.0508829
-0.018813
-0.0585211
-0.0784531
-0.0794221
-0.0629357
-0.0810173
-0.0627099
-0.0812575
0.0726741
0.0559655
-0.000244844
0.0110143
0.0220114
0.0179172
0.00921439
0.0140424
-0.0138104
-0.00460893
-0.0641198
-0.0110548
-0.206878
-0.042271
-0.360492
-0.28353
-0.101872
-0.0517276
-0.240767
0.220358
-0.0577794
-0.0497207
0.13828
0.427232
0.784887
0.588743
-0.00182174
0.378953
0.277752
-0.102258
-0.109154
-0.111582
-0.0925947
-0.112851
-0.11597
-0.0897684
-0.101734
-0.103938
-0.0857056
-0.105257
-0.10796
-0.083184
-0.126184
-0.124064
-0.091366
-0.0876726
-0.115931
-0.0966116
-0.108971
-0.0941052
-0.09354
-0.0953445
-0.0971832
-0.0797525
-0.0990476
-0.101385
-0.0776088
-0.122144
-0.124052
-0.090653
-0.10724
-0.0918249
-0.0985562
-0.0887469
-0.113857
-0.0941767
-0.122778
-0.120353
-0.0865341
-0.0849306
-0.113063
-0.0931468
-0.105777
-0.090309
-0.0891521
-0.0905288
-0.0921504
-0.0753529
-0.0943546
-0.0963796
-0.0734175
-0.118874
-0.121156
-0.0868407
-0.104539
-0.0885604
-0.0965162
-0.0846078
-0.111497
-0.0911087
-0.120128
-0.117509
-0.0828552
-0.0829669
-0.110892
-0.0903446
-0.103407
-0.0873109
-0.0857274
-0.0869947
-0.0882324
-0.0719563
-0.0908931
-0.0926282
-0.0703575
-0.116298
-0.118703
-0.0837132
-0.102339
-0.0857446
-0.0947865
-0.0812512
-0.10946
-0.0884826
-0.118003
-0.115243
-0.079976
-0.0813992
-0.10917
-0.0879705
-0.101504
-0.0848447
-0.082926
-0.0843559
-0.0853746
-0.0694829
-0.0882941
-0.0898234
-0.0680653
-0.114279
-0.116775
-0.0812344
-0.10068
-0.083448
-0.0935195
-0.0785988
-0.107927
-0.0863563
-0.116334
-0.113514
-0.0777587
-0.080299
-0.107831
-0.086124
-0.100151
-0.0829057
-0.0807976
-0.0822985
-0.0831806
-0.0675378
-0.0861798
-0.0875834
-0.0662298
-0.112769
-0.11537
-0.0793841
-0.099488
-0.0817469
-0.0925598
-0.0766758
-0.106765
-0.0846857
-0.115103
-0.112218
-0.0760495
-0.0794699
-0.106815
-0.0846355
-0.0991171
-0.0813723
-0.0791621
-0.0806816
-0.0814495
-0.0659681
-0.0844299
-0.085733
-0.0647614
-0.111646
-0.114302
-0.0779363
-0.0985897
-0.0803312
-0.0918633
-0.0751378
-0.105871
-0.0833487
-0.114082
-0.111216
-0.0746658
-0.0788415
-0.105935
-0.0833515
-0.098306
-0.0800741
-0.0778013
-0.0792698
-0.0800121
-0.0646418
-0.0828837
-0.0841618
-0.0634352
-0.110629
-0.113241
-0.0765688
-0.0977318
-0.0790822
-0.0910269
-0.0738135
-0.104917
-0.0820241
-0.113042
-0.110196
-0.0733447
-0.0780944
-0.10498
-0.0820399
-0.0974195
-0.0788069
-0.0764563
-0.0779821
-0.0786975
-0.0633785
-0.0814658
-0.082642
-0.0622158
-0.109622
-0.112007
-0.0751416
-0.0968521
-0.0777952
-0.0900944
-0.0724885
-0.103808
-0.0806346
-0.110941
-0.108542
-0.0717229
-0.0766781
-0.103051
-0.0803374
-0.095837
-0.0772301
-0.0746735
-0.0772289
-0.0776471
-0.0623172
-0.0804415
-0.0813436
-0.0614806
-0.10708
-0.110162
-0.0740488
-0.0943325
-0.0763365
-0.088335
-0.0707901
-0.102245
-0.0797721
-0.110994
-0.108094
-0.0716136
-0.0765967
-0.103467
-0.0806701
-0.0956375
-0.0774559
-0.0746841
-0.0784902
-0.078378
-0.0630273
-0.0807161
-0.0814012
-0.0624523
-0.107152
-0.0982533
-0.063828
-0.0954583
-0.0761927
-0.0807389
-0.0701649
-0.0907137
-0.0708002
-0.0446937
-0.0486218
-0.0334449
-0.0260136
-0.0637401
-0.0532585
-0.0132162
-0.0967812
-0.0769739
-0.0630192
-0.095291
-0.0836815
-0.0748201
0.113192
0.0127576
0.00486975
0.061329
0.0186312
0.0616746
0.0684792
-0.0909603
0.0274667
0.0843199
0.160991
-0.0488002
-0.0543954
0.619506
-2.51513
0.23334
-0.061075
-0.750902
-0.0814681
-1.668
-0.131577
-0.0521355
-0.0956766
0.010195
0.126904
-0.0920449
-0.120446
-0.106927
-0.0779451
0.0304281
-0.0512726
0.00681294
-0.134823
-0.341129
0.232181
-0.132184
0.00990058
0.235934
-0.338878
-0.128326
0.0145406
0.24179
-0.335765
0.012324
-0.130334
-0.337386
0.238925
0.016518
-0.126739
-0.33444
0.244281
-0.125107
0.0184661
0.246871
-0.333093
-0.12239
0.0217009
0.251262
-0.330985
0.0201242
-0.12386
-0.332235
0.24906
0.0233426
-0.12092
-0.329873
0.253482
-0.119657
0.0250785
0.255778
-0.328803
-0.117374
0.0277929
0.259473
-0.327152
0.0264399
-0.118538
-0.328117
0.257635
0.0290663
-0.116272
-0.326396
0.261245
-0.115374
0.0304042
0.26303
-0.325695
-0.113764
0.0323705
0.265797
-0.324675
0.0313659
-0.114599
-0.32532
0.264424
0.033315
-0.112897
-0.324144
0.267169
-0.112237
0.0343989
0.268603
-0.323658
-0.110949
0.0359341
0.270785
-0.322924
0.0351407
-0.11165
-0.32345
0.26968
0.036747
-0.11028
-0.322545
0.271922
-0.109764
0.037591
0.273086
-0.322194
-0.108842
0.0387498
0.274758
-0.321768
0.0381626
-0.109381
-0.322149
0.27391
0.039342
-0.108352
-0.321527
0.275646
-0.107981
0.0400189
0.276587
-0.321293
-0.107284
0.0408798
0.277889
-0.321035
0.0404211
-0.107704
-0.321336
0.277212
0.0413805
-0.106865
-0.320856
0.278629
-0.106598
0.0419512
0.279429
-0.320686
-0.106064
0.0425947
0.280455
-0.320541
0.0422431
-0.106423
-0.320806
0.279907
0.0430472
-0.105672
-0.320364
0.281113
-0.10544
0.0435722
0.281836
-0.320205
-0.10498
0.0441202
0.282716
-0.3201
0.0438264
-0.105307
-0.320348
0.282247
0.0445415
-0.104633
-0.319942
0.283321
-0.104374
0.0450074
0.28397
-0.319744
-0.103883
0.0455803
0.284842
-0.319565
0.045299
-0.104237
-0.31984
0.284399
0.0460261
-0.10353
-0.319363
0.285455
-0.103336
0.0464563
0.286063
-0.319205
-0.103247
0.0466773
0.286591
-0.319358
0.0466179
-0.103355
-0.319432
0.286365
0.0468108
-0.10331
-0.319548
0.286907
-0.103698
0.0467513
0.287015
-0.319935
-0.105067
0.0456073
0.286196
-0.321427
0.0463237
-0.104465
-0.320852
0.286728
0.0451425
-0.105459
-0.321456
0.286074
-0.10516
0.045319
0.287303
-0.319934
-0.107226
0.0459595
0.292657
-0.317799
0.046204
-0.104721
-0.317986
0.289747
0.0406358
-0.124922
-0.331515
0.291574
-0.179606
0.00577331
0.267454
-0.397744
-0.569832
-0.28197
0.019444
-0.545655
-0.0799102
-0.335634
-0.519106
0.174793
-0.205761
-0.344987
-1.07328
-0.0444708
-0.0806469
-0.0763545
-0.0447546
-0.0753388
-0.0735089
-0.0427191
-0.07219
-0.0783538
-0.0767344
-0.0790278
-0.0763731
-0.0696174
-0.0377953
-0.0682589
-0.0528241
-0.0672611
-0.0363423
-0.0655806
-0.0867082
-0.107201
-0.0837712
-0.049638
-0.0631513
-0.0641738
-0.0721678
-0.0698762
-0.0723598
-0.0699916
-0.0642675
-0.0323321
-0.0628005
-0.0479777
-0.062846
-0.031723
-0.0613905
-0.0837119
-0.104551
-0.0812188
-0.0468709
-0.0687218
-0.060072
-0.0613524
-0.0674944
-0.0645131
-0.0671273
-0.065114
-0.0605109
-0.0285127
-0.0592479
-0.0445103
-0.0597069
-0.0282869
-0.0581624
-0.0816408
-0.102495
-0.079161
-0.0448527
-0.0665259
-0.0580029
-0.0590862
-0.0255778
-0.0266464
-0.0218979
-0.0195565
-0.0273254
-0.0246724
-0.0131974
-0.0639276
-0.0605143
-0.0632986
-0.0613682
-0.0577309
-0.025281
-0.0562474
-0.041666
-0.0572255
-0.0252709
-0.0554153
-0.080001
-0.100784
-0.0773726
-0.0430807
-0.064579
-0.0561561
-0.0571605
-0.0225173
-0.0232984
-0.0187757
-0.0161563
-0.024221
-0.0214142
-0.0101299
-0.0611091
-0.0573781
-0.0603078
-0.0583867
-0.0555145
-0.0226149
-0.0538085
-0.0393671
-0.0552421
-0.0228261
-0.0532059
-0.078747
-0.0996436
-0.0762468
-0.0418607
-0.0631028
-0.0548859
-0.0557951
-0.0198871
-0.0204218
-0.0160351
-0.0132937
-0.0215221
-0.0186487
-0.0075109
-0.0587236
-0.0547698
-0.0578484
-0.0559104
-0.0536943
-0.0203844
-0.0517795
-0.0374062
-0.0535842
-0.0207544
-0.0514108
-0.0778296
-0.0988245
-0.0754192
-0.0409914
-0.0539357
-0.0177465
-0.0180703
-0.0137939
-0.0109312
-0.0193131
-0.0163908
-0.0053627
-0.0567713
-0.0526392
-0.0558205
-0.0538688
-0.0522387
-0.0185963
-0.0502185
-0.035743
-0.0522183
-0.0190165
-0.0499383
-0.0769335
-0.0979728
-0.0745394
-0.040095
-0.0530659
-0.0157562
-0.0159548
-0.0117889
-0.0087863
-0.0172865
-0.0143214
-0.00336023
-0.0549917
-0.0507267
-0.0540177
-0.05194
-0.0508559
-0.0167475
-0.0487135
-0.034082
-0.0508015
-0.0172703
-0.0484127
-0.0761595
-0.0734644
-0.0389961
-0.0522492
-0.0138203
-0.0140165
-0.010033
-0.00670235
-0.0154225
-0.0123055
-0.00140901
-0.0532883
-0.0488809
-0.0523308
-0.0500543
-0.0494659
-0.0154467
-0.047319
-0.0321152
-0.0495864
-0.0152299
-0.0471411
-0.0726426
-0.0705639
-0.0358379
-0.0485491
-0.0111714
-0.011346
-0.00738232
-0.0042228
-0.0126605
-0.00968002
0.00103936
-0.0514771
-0.0465161
-0.0503818
-0.0478228
-0.0482217
-0.0118148
-0.0455739
-0.0308413
-0.0484108
-0.0137486
-0.0456928
-0.075797
-0.0635622
-0.0328393
-0.0536247
-0.00739841
-0.00902953
-0.00598686
-0.00110733
-0.0106954
-0.00575457
0.00385673
-0.0497177
-0.0449072
-0.0494446
-0.0444883
-0.0483941
-0.016148
-0.0465574
-0.0245342
-0.0542911
-0.00826461
-0.0509171
0.016483
0.0102268
0.010846
0.0196193
0.00867805
0.0196793
0.022
-0.0325238
-0.025697
-0.0381761
-0.0141307
-0.0581608
0.01593
-0.0432393
-0.0121101
-0.129379
-0.0181197
-0.126281
-0.0864861
-0.12602
-0.0821739
-0.0846151
-0.123215
-0.121889
-0.0804139
-0.078039
-0.117482
-0.11896
-0.0745005
-0.0767492
-0.115102
-0.11412
-0.0731014
-0.0709406
-0.110374
-0.111469
-0.0712612
-0.0690304
-0.0706527
-0.0559358
-0.0703582
-0.0706689
-0.0737147
-0.0755357
-0.0734379
-0.0731781
-0.0754945
-0.0680301
-0.0699932
-0.108208
-0.107578
-0.06709
-0.048863
-0.0681175
-0.071467
-0.0657061
-0.067756
-0.0687506
-0.0616599
-0.0598373
-0.0639437
-0.0619487
-0.055613
-0.0605657
-0.0579014
-0.108633
-0.0822544
-0.0849311
-0.0609146
-0.0624821
-0.0697334
-0.0477352
-0.0670041
-0.0651668
-0.104506
-0.105171
-0.0654363
-0.062598
-0.0648849
-0.0500689
-0.0641154
-0.0646714
-0.068252
-0.0696137
-0.0677752
-0.0670787
-0.069985
-0.0629433
-0.0645863
-0.102654
-0.102356
-0.0615276
-0.0433041
-0.0628237
-0.066588
-0.0599708
-0.0626056
-0.0635882
-0.0627474
-0.0585727
-0.0570627
-0.0599966
-0.0610932
-0.0548778
-0.0571397
-0.0611353
-0.0596873
-0.0535026
-0.0583442
-0.0557606
-0.106202
-0.0801131
-0.0825496
-0.0584954
-0.0600596
-0.067199
-0.0455292
-0.062302
-0.0607961
-0.100078
-0.100347
-0.0610397
-0.0575842
-0.0603742
-0.045532
-0.0592274
-0.0600643
-0.0640756
-0.0652274
-0.0635655
-0.0625378
-0.0660007
-0.0592397
-0.0605873
-0.0986162
-0.0986111
-0.0574927
-0.0393333
-0.0589349
-0.063215
-0.0557985
-0.0589723
-0.0599331
-0.0603096
-0.0561266
-0.0551098
-0.0579938
-0.0590612
-0.0529403
-0.0419712
-0.0549252
-0.0589493
-0.0578294
-0.0516642
-0.0565225
-0.0539156
-0.104399
-0.0783041
-0.0807777
-0.0566751
-0.057935
-0.065222
-0.0435879
-0.0388043
-0.0266651
-0.00110942
-0.03778
-0.0264539
-0.00202168
-0.025924
-0.0233809
-0.0233168
-0.0120016
-0.0250146
-0.0204676
-0.0244482
-0.0362717
-0.0250874
-0.000780149
-0.0249922
0.000476689
-0.0376314
-0.0588627
-0.0575868
-0.0967967
-0.096817
-0.057779
-0.0538605
-0.0571563
-0.0422395
-0.0556488
-0.0566293
-0.0611134
-0.0619014
-0.0602416
-0.0590399
-0.0628456
-0.0564553
-0.0575863
-0.0955121
-0.0957311
-0.0544122
-0.0362382
-0.0558828
-0.0605879
-0.0525691
-0.0561687
-0.0570348
-0.0414298
-0.0445047
-0.0582292
-0.0540909
-0.0533954
-0.0562215
-0.0572847
-0.0512272
-0.0435283
-0.0404842
-0.0531635
-0.0571045
-0.0562293
-0.0501711
-0.0549242
-0.0524184
-0.024078
-0.023338
-0.0400619
-0.037319
-0.0216934
-0.0224253
-0.0357896
-0.0383864
-0.102904
-0.0767998
-0.0793128
-0.0551074
-0.0562957
-0.0635156
-0.0421354
-0.012054
-0.0228803
-0.041614
-0.0314999
-0.018409
-0.0184111
-0.0315685
-0.0169299
-0.0359069
-0.0169815
-0.03046
-0.0212708
-0.0403279
-0.0107366
-0.0358128
-0.0233052
0.00218328
-0.0346353
-0.023243
0.00111272
-0.022979
-0.0201167
-0.0202645
-0.00912598
-0.0218808
-0.017487
-0.0215273
-0.0333565
-0.0221156
0.00210106
-0.021891
0.00351428
-0.0348485
-0.0561616
-0.0550455
-0.094204
-0.0939873
-0.0551893
-0.0509684
-0.054633
-0.0396436
-0.0528664
-0.0539047
-0.0587589
-0.0592128
-0.0575365
-0.0561833
-0.0602774
-0.0542222
-0.0551871
-0.0930109
-0.0933875
-0.0519081
-0.033709
-0.0534268
-0.0584396
-0.0499202
-0.0538936
-0.0546482
-0.0401318
-0.0431043
-0.0566138
-0.0526139
-0.0521042
-0.0548327
-0.0558835
-0.0499513
-0.0207675
-0.0201926
-0.0367626
-0.0341961
-0.0188039
-0.0194255
-0.0329047
-0.0354006
-0.101811
-0.0758222
-0.0782362
-0.0539746
-0.0550915
-0.0622014
-0.0410895
-0.00907619
-0.0196644
-0.0388369
-0.028621
-0.0152817
-0.0153737
-0.0289085
-0.0140982
-0.0331726
-0.0141571
-0.0280322
-0.0183715
-0.0378059
-0.00795681
-0.0332757
-0.0204747
0.0049744
-0.0319677
-0.0205456
0.00375291
-0.0204753
-0.0173879
-0.017749
-0.00675316
-0.019233
-0.0149936
-0.0191093
-0.0309344
-0.0196486
0.00454512
-0.0193181
0.00606006
-0.032506
-0.0539918
-0.052941
-0.0920157
-0.0917243
-0.0530934
-0.0485477
-0.0525561
-0.0375009
-0.0506147
-0.0516559
-0.056827
-0.056923
-0.0552565
-0.0538068
-0.0580012
-0.0523273
-0.0531757
-0.0909462
-0.0913467
-0.0498937
-0.0316129
-0.0513351
-0.056608
-0.0477319
-0.0519847
-0.0526438
-0.0180137
-0.0175147
-0.0340335
-0.0315339
-0.0163871
-0.0169126
-0.0304735
-0.0328903
-0.101008
-0.0750253
-0.0774215
-0.0531726
-0.0402776
-0.00650229
-0.0170258
-0.0365494
-0.0261936
-0.012706
-0.0127576
-0.026668
-0.0117188
-0.0308876
-0.011769
-0.0259222
-0.0159319
-0.0357011
-0.0056215
-0.0311335
-0.0181681
0.00729601
-0.0297981
-0.0183011
0.00599122
-0.0183834
-0.0151003
-0.0155852
-0.00467809
-0.0170279
-0.0129066
-0.0170321
-0.0288425
-0.0175055
0.00668956
-0.0171288
0.00822674
-0.0304512
-0.0521956
-0.0512301
-0.0902588
-0.0899292
-0.0513183
-0.0465926
-0.0508335
-0.0357021
-0.0488037
-0.0497815
-0.0551412
-0.0550601
-0.0532741
-0.051841
-0.0561652
-0.0507193
-0.051481
-0.0892056
-0.0896618
-0.0481687
-0.0299006
-0.0494664
-0.0549881
-0.0459416
-0.0503822
-0.0508851
-0.0156992
-0.015263
-0.0316735
-0.0292392
-0.0143511
-0.0148183
-0.0283952
-0.0307358
-0.100135
-0.0741816
-0.0765119
-0.052229
-0.0393925
-0.0042438
-0.0147001
-0.0345102
-0.024042
-0.0104134
-0.0104906
-0.0245907
-0.00966752
-0.0288679
-0.00972173
-0.0240274
-0.0138148
-0.0338257
-0.00362474
-0.0291506
-0.0160624
0.00938869
-0.0277721
-0.0162416
0.00808324
-0.0163678
-0.0130493
-0.0136331
-0.00279386
-0.0149788
-0.0110078
-0.0151672
-0.0268407
-0.01556
0.00867337
-0.0150744
0.0102601
-0.0285908
-0.0505723
-0.0497301
-0.0885979
-0.0881659
-0.049584
-0.0448494
-0.0491952
-0.0339157
-0.0470734
-0.0479624
-0.0534966
-0.0533078
-0.0514087
-0.0499732
-0.05444
-0.0492043
-0.0498794
-0.0874713
-0.0880202
-0.0464669
-0.0282267
-0.0477194
-0.0533385
-0.0442257
-0.0487702
-0.0491853
-0.0296802
-0.0717851
-0.0749823
-0.0506677
-0.0369833
-0.00232856
-0.0127328
-0.0327754
-0.0220388
-0.00851497
-0.0084756
-0.0227101
-0.00757346
-0.0267545
-0.00758308
-0.0217848
-0.0116701
-0.0318177
-0.00147448
-0.027185
-0.0140693
0.0113945
-0.0258065
-0.014206
0.010107
-0.014173
-0.0108424
-0.0110691
-0.000340083
-0.0127621
-0.00890853
-0.0126067
-0.0246782
-0.0129876
0.0112184
-0.0128579
0.0124123
-0.0260181
-0.0490263
-0.0482268
-0.0870165
-0.0865568
-0.0479115
-0.0431311
-0.0476595
-0.0322235
-0.0454352
-0.046192
-0.0519119
-0.0515583
-0.0491737
-0.0479767
-0.0525602
-0.0479729
-0.0485147
-0.0859418
-0.0865201
-0.0447538
-0.026394
-0.0455418
-0.0514833
-0.0423372
-0.0471076
-0.0472936
-0.0724538
-0.0733733
-0.0487519
-0.0375648
-0.000288009
-0.0103697
-0.0302942
-0.0198897
-0.00604756
-0.00653474
-0.0205049
-0.00604678
-0.0249525
-0.00678529
-0.0205158
-0.0102444
-0.0299456
-0.00074781
-0.02449
-0.0113791
0.01402
-0.0231242
-0.0115196
0.0127672
-0.0119082
-0.00868767
-0.00897314
0.00134256
-0.010484
-0.00677814