/*--------------------------------*- C++ -*----------------------------------*\
  =========                 |
  \\      /  F ield         | OpenFOAM: The Open Source CFD Toolbox
   \\    /   O peration     | Website:  https://openfoam.org
    \\  /    A nd           | Version:  10
     \\/     M anipulation  |
\*---------------------------------------------------------------------------*/
FoamFile
{
    format      ascii;
    class       surfaceScalarField;
    location    "2000";
    object      phi;
}
// * * * * * * * * * * * * * * * * * * * * * * * * * * * * * * * * * * * * * //

dimensions      [0 3 -1 0 0 0 0];

internalField   nonuniform List<scalar> 
25639
(
0.0987304
-0.424607
77.9655
1.8186
-0.565937
0.133585
-0.0773299
0.313302
-0.432832
-0.358836
-0.488427
0.100363
-0.422589
-77.931
77.9108
1.81244
-0.566853
0.13511
-0.0770302
0.313513
-0.430891
-0.357158
-0.486712
0.187626
-9.8163
-375.113
9.42684
-1.13295
375.137
0.15281
0.56562
0.592306
-14.1127
1588.26
3.57639
3.37538
-9.18416
-9.76171
-9.13126
-9.22142
42.069
1636.68
-0.581325
0.0266727
-1.10614
-0.032116
40.4171
1630.21
0.798919
1.20852
0.81832
1.2452
1671.12
0.100775
-0.42123
-77.8768
77.8542
1.80867
-0.565028
0.135449
-0.077785
0.312753
-0.429618
-0.35596
-0.485458
0.111684
9.86201
0.763855
365.483
0.113184
-0.54376
-0.44066
0.191145
-9.81135
-375.126
9.42433
-1.13821
375.133
0.155216
0.571807
0.600643
-14.2011
1588.55
3.56819
3.36467
3.89442
-9.18383
-9.76186
-9.1308
-9.2216
42.0562
1636.66
-0.564148
0.0391986
-1.09449
-0.0376736
40.4126
1630.2
0.810067
1.21807
0.818824
1.23888
1671.09
0.100677
-0.420399
-77.8258
77.8049
1.80629
-0.565353
0.135419
-0.0788716
0.31176
-0.428869
-0.355158
-0.484611
-15.126
1473.92
-7.5655
-7.80059
-7.61463
-8.16207
4.19139
3.31599
4.30736
4.40614
0.115654
-365.427
9.85795
0.741114
365.435
0.118714
-0.540242
-0.435677
0.193745
-9.80714
-375.112
9.42126
-1.13387
375.102
0.156833
0.574074
0.604853
35.1046
-14.2081
1588.78
3.57098
5.30318
3.36918
3.91685
-9.18288
-9.76202
-9.12909
-9.22133
-13.4297
1565.23
42.0483
1636.66
-0.561714
0.0357651
-1.08485
-0.0334732
40.4106
1630.25
0.805274
1.21563
0.815339
1.2325
38.1698
1671.11
1646.47
-48.6831
-1.32524
48.6754
1.44126
-0.108326
0.100293
-0.420011
-77.7827
77.7643
1.80474
-0.564953
0.135074
-0.0800713
0.310679
-0.428526
-0.354664
-0.484104
-15.1297
1474.07
-7.56816
-7.80349
-7.61694
-8.16579
4.21735
3.32864
4.33093
4.4127
0.118123
-365.374
9.85516
0.733665
365.379
0.119261
-0.538157
-0.429477
0.195554
-9.80311
-375.08
9.41902
-1.13632
375.061
0.160328
0.575742
0.608108
35.1152
-14.2172
1588.99
3.57048
5.32387
3.36843
3.93121
-9.18118
-9.76242
-9.1275
-9.2221
-13.4404
1565.27
42.0433
1636.68
-0.552117
0.0400396
-1.09084
-0.0425783
40.4124
1630.29
0.815085
1.21629
0.811103
1.23326
38.1715
1671.18
1646.47
-48.7106
-1.32719
48.7053
1.4413
-0.108805
1.72092
0.425186
68.6964
0.0108187
0.099721
-0.419964
-77.7496
77.7337
1.80378
-0.563765
0.134558
-0.0812415
0.309664
-0.428496
-0.354452
-0.483872
-15.1457
1474.19
-7.57027
-7.80743
-7.61854
-8.16912
4.23952
3.33475
4.35068
4.41864
-2.85101
9.95016
3.22678
380.727
0.119425
-365.316
9.85276
0.728876
365.319
0.121465
-0.536918
-0.427407
-9.86205
0.19706
-9.79939
-375.027
9.4165
-1.14531
375.004
0.166217
0.577111
0.61085
35.1263
-14.225
1589.16
3.57011
5.33756
3.36856
3.94444
-9.17972
-9.76334
-9.12597
-9.2229
-13.4765
1565.33
42.8997
1646.34
-3.46381
-2.31747
-3.17148
-2.81953
42.0417
1636.7
-0.545134
0.0443606
-1.084
-0.0382461
40.4172
1630.38
0.811753
1.21082
0.807956
1.22857
38.1749
1671.26
1646.45
-48.7467
-1.32882
48.7431
1.44223
-0.109849
-2.18707
2.33078
2.12774
91.0048
-68.7486
-2.1254
1.72127
0.425353
68.7178
0.00955503
0.0990559
-0.420112
-77.7264
77.7128
1.80329
-0.562127
0.133945
-0.0823083
0.308756
-0.428653
-0.35441
-0.48382
-15.1583
1474.26
-7.57158
-7.81052
-7.61948
-8.17178
4.25882
3.3416
4.36875
4.43186
9.81546
1708.45
-7.29226
-6.94527
9.51351
9.94525
10.3154
-6.66847
10.3193
6.20333
411.771
-2.84508
-380.72
-10.3118
9.94804
3.21859
380.71
0.120163
-365.255
9.85097
0.724942
365.26
0.122863
-0.536216
-0.426129
-9.86094
0.198096
-9.79676
-374.968
9.41391
-1.14147
374.938
0.165631
0.577983
0.612957
35.1384
-14.2376
1589.29
3.57107
5.35083
3.36996
3.96412
-9.17836
-9.76418
-9.12464
-9.2238
-13.4923
1565.39
42.7617
1719.77
-5.84721
-4.89815
-5.65018
-4.4742
42.8903
1646.42
-3.46563
-2.32018
-3.18016
-2.81535
42.0428
1636.73
-0.55176
0.0360026
-1.07779
-0.0324386
40.4234
1630.44
0.809316
1.21425
0.819144
1.23305
38.181
1671.37
1646.5
-48.789
-1.33044
48.7867
1.44389
-0.111114
-91.1707
-2.18762
2.33075
2.12576
90.9999
-68.7717
-2.12566
1.72181
0.425887
68.7413
0.00835366
0.0984048
-0.420372
-77.7119
77.7003
1.80315
-0.560278
0.13334
-0.0832711
0.307958
-0.42892
-0.35449
-0.483899
-15.1774
1474.3
-7.57208
-7.81278
-7.6199
-8.17348
4.27514
3.34251
4.38386
4.44432
9.81523
1708.56
-7.2926
-6.94613
9.51394
9.94556
10.3133
-6.66812
-411.809
10.3181
6.20512
411.769
-2.84008
-380.698
-10.3105
9.94639
3.21747
380.685
0.12039
-365.197
9.84953
0.721854
365.203
0.126728
-0.535957
-0.428383
-9.86018
0.198901
-9.79468
-374.899
9.41193
-1.15797
374.876
0.167625
0.578705
0.617866
35.1503
-14.2515
1589.38
3.57949
5.37036
3.37845
3.97661
-9.17705
-9.76527
-9.12331
-9.22478
-13.5458
1565.5
42.7665
1719.86
-5.84311
-4.89272
-5.63983
-4.46187
42.8897
1646.51
-3.45341
-2.31546
-3.16785
-2.81086
42.0463
1636.8
-0.545144
0.0426723
-1.07789
-0.0322077
40.4309
1630.55
0.807904
1.21276
0.818564
1.23937
38.1885
1671.53
1646.63
-48.8356
-1.33174
48.834
-0.112695
-91.1655
-2.18822
2.33084
2.12112
90.9976
-68.796
-2.12615
1.72247
0.426608
68.7658
0.00728552
0.0977841
-0.42073
-77.705
77.6977
1.80335
-0.561008
0.132775
-0.0841325
0.307273
-0.429266
-0.354648
-0.484104
-15.2476
1474.36
-7.5731
-7.81471
-7.62106
-8.17557
4.28853
3.34877
4.40141
4.4552
9.81846
1708.75
-7.29389
-6.93385
9.52005
9.94914
10.3172
-6.66146
-411.817
10.318
6.20056
411.779
-2.83025
-380.673
-10.3068
9.94538
3.2164
380.648
0.120336
-365.154
9.84909
0.719544
365.163
0.127132
-0.536036
-0.428223
-9.86004
0.202592
-9.79324
-374.833
9.41041
-1.16873
374.818
0.175223
0.576261
0.61337
35.1644
-14.3614
1589.52
3.57596
5.37654
3.38179
4.00917
-9.17603
-9.7663
-9.12282
-9.22612
-13.6711
1565.66
42.7799
1720.02
-5.8471
-4.89406
-5.60838
-4.43553
42.8975
1646.67
-3.45479
-2.31089
-3.15665
-2.80606
42.0506
1636.89
-0.538829
0.0432287
-1.06546
-0.0115138
40.4402
1630.69
0.81515
1.22068
0.839467
1.26806
38.1998
1671.71
1646.73
-48.8844
-1.33276
48.8832
-0.114447
-91.1599
-2.18737
2.3298
2.11987
90.9919
-68.8208
-2.1268
1.7232
0.427468
68.7906
0.00634244
0.0972491
-0.421104
-77.7038
77.7004
1.80382
-0.561812
0.132298
-0.084868
0.306718
-0.429645
-0.354876
-0.484346
-15.3603
1474.47
-7.57345
-7.81614
-7.62136
-8.17672
4.30628
3.36096
4.41304
4.47363
9.82032
1709.05
-7.28131
-6.91463
9.51922
9.95415
10.3285
-6.65456
-411.828
10.3153
6.18924
411.798
-2.82045
-380.644
-10.3095
9.94211
3.20169
380.631
0.12011
-365.116
9.84929
0.70488
365.139
0.127043
-0.533343
-0.428372
-9.86282
0.199965
-9.79262
-374.779
9.40949
-1.17232
374.761
0.176456
0.579549
0.617447
35.1772
-14.4512
1589.67
3.592
5.38886
3.39078
4.0467
-9.17542
-9.76695
-9.12234
-9.22691
-13.8459
1565.88
42.7915
1720.3
-5.84345
-4.88772
-5.56231
-4.40076
42.9114
1646.91
-3.4485
-2.30392
-3.12217
-2.77815
42.0643
1637.08
-0.531568
0.0518109
-1.04434
0.0112005
40.4504
1630.93
0.814906
1.21518
0.864954
1.30816
38.2095
1672
1646.93
-48.9343
-1.33336
-0.116347
-68.8455
-2.12751
1.72394
0.428384
68.8152
0.00549228
0.0967856
-0.421504
-77.7074
77.705
1.80447
-0.560113
0.131897
-0.0855003
0.306269
-0.430048
-0.355147
-0.484635
-15.6921
1474.86
-7.57595
-7.81969
-7.62454
-8.1809
4.31458
3.36649
4.42917
4.51078
9.82184
1709.55
9.52424
9.96725
10.3428
-411.858
10.3253
6.15142
411.832
-2.81246
-380.63
-10.3124
9.94232
3.18878
380.624
0.119664
-365.09
9.84995
0.69787
365.122
0.123599
-0.533885
-0.42575
-9.86331
0.200439
-9.79275
-374.732
9.40939
-1.197
374.733
0.174553
0.582992
0.62155
35.1938
-14.862
1590.1
3.60125
5.40685
3.42117
4.11021
-9.177
-9.77012
-9.12459
-9.23067
-14.3713
1566.34
42.8284
1720.76
-5.81609
-4.86477
-5.46611
-4.32491
42.9261
1647.34
-3.43973
-2.29441
-3.06375
-2.73164
42.0593
1637.44
-0.520178
0.0676233
-1.00068
0.0594465
40.4095
1631.3
0.842264
1.24567
0.923399
1.39099
38.2297
1672.24
1647.17
-68.8721
-2.12807
1.72468
0.431487
68.8391
0.00496453
0.0964324
-0.421885
-77.7163
77.7134
1.80503
-0.556174
0.131584
-0.0872091
0.305917
-0.430421
-0.355419
-0.484914
-15.9594
1475.06
-7.56781
-7.81359
-7.61428
-8.14785
4.36971
3.43629
4.52029
4.65456
9.84224
1710.2
9.54429
9.99593
10.3792
-411.916
10.3355
6.04937
411.936
-2.78085
-380.647
-10.3191
9.95209
3.12035
380.674
0.11645
-365.1
9.85287
0.660782
365.159
0.126764
-0.527477
-0.422403
-9.86638
0.201036
-9.79568
-374.729
9.41071
-1.2248
374.748
0.178745
0.586334
0.625292
35.2128
-15.2397
1590.47
3.649
5.45705
3.50133
4.28002
-9.17111
-9.76521
-9.09225
-9.19865
-15.029
1567.13
42.8949
1721.21
-5.71161
-4.76642
-5.20784
-4.11892
43.0023
1647.8
-3.35654
-2.23265
-2.90098
-2.59756
42.1484
1637.91
-0.475601
0.116021
-0.890357
0.175459
40.4704
1631.98
0.873868
1.27754
1.02859
1.53106
38.3234
1672.71
1647.45
-68.8984
-2.12813
1.72596
0.429517
68.8668
0.00434784
0.0969527
-0.422196
-77.7357
77.7371
1.805
-0.557418
0.129597
-0.0868398
0.305039
-0.430709
-0.355662
-0.485236
-19.4573
1479.42
-7.6099
-7.87774
-7.703
-8.33683
4.25522
3.40567
4.3327
4.73995
9.88258
9.58335
10.0607
10.4465
-412.088
10.367
5.78874
412.174
-2.72057
-380.752
-10.3434
9.96612
3.00047
380.849
0.114578
-365.18
9.85776
0.605549
365.286
0.122944
-0.521596
-0.412105
-9.87331
0.2065
-9.79649
-374.789
9.41605
-1.35669
374.88
0.185954
0.606927
0.646985
36.9971
-20.0349
1593.52
3.68609
5.47547
3.65547
4.5365
-9.24168
-9.811
-9.10391
-9.21003
-20.015
1569.74
43.0055
-5.47494
-4.56901
-4.79041
-3.78886
42.9634
1648.53
-3.23515
-2.17202
-2.7139
-2.49575
41.9362
1638.59
-0.416257
0.217302
-0.793592
0.252699
40.6016
1631.73
1.07495
1.52789
1.05146
1.83806
41.7625
1668.69
1648.31
-68.9252
1.72407
0.434952
68.8905
0.000841591
0.0957257
-0.42
-77.778
77.8162
1.78728
-0.577768
0.129218
-0.0906413
0.304698
-0.428875
-0.35401
-0.483872
27.9427
-8.33198
-8.6652
-13.6426
-14.7477
3.44766
4.3239
-8.40367
5.45083
-2.57108
-381.003
10.006
2.7208
381.253
0.0768214
-365.377
9.85714
0.827919
365.6
0.0824829
-0.62619
-0.539964
-9.90145
-0.345527
-9.92539
-375.058
9.98502
4.88355
374.526
-0.70623
-1.1402
-2.21968
60.1145
59.408
3.15782
3.38434
-24.5535
-21.0151
-9.10043
-9.73553
-11.6243
-12.3279
28.5042
43.1178
-2.84004
-1.99795
-5.19291
-5.47287
44.586
-0.457717
-1.37994
-4.34838
-9.26393
47.2361
-5.51571
-3.22535
-46.3111
-51.911
68.1134
-0.477963
-0.416241
-73.4483
1.81913
3.31542
-0.117581
-0.849014
-0.920164
-0.375625
-0.331626
-0.301513
-4.99983
10.377
-4.44486
-11.6284
-10.3272
-365.77
-3.8608
-10.9457
-361.61
9.21296
-1.71896
-3.2638
-0.251668
0.375915
-0.188873
0.286047
-0.52789
20.7159
20.6633
0.363491
-0.143403
-20.7176
0.265935
-0.431698
0.374719
-0.192908
0.288563
-0.525919
20.7188
20.6701
0.363011
-0.145644
-20.7239
0.267271
-0.430882
0.374299
-0.194969
0.28972
-0.524982
20.7261
20.6801
0.362967
-0.14663
-20.7335
0.267871
-0.430784
0.374305
-0.195876
0.290189
-0.524857
20.7363
20.6925
0.363208
-0.146949
-20.7456
0.268104
-0.431205
0.374595
-0.19617
0.290373
-0.525293
20.749
20.7064
0.363658
-0.146869
-20.7595
0.268233
-0.432006
0.37506
-0.19607
0.290482
-0.526115
20.7631
20.7211
0.364229
-0.146681
-20.7741
0.2684
-0.432954
0.375643
-0.195864
0.290624
-0.52708
20.7778
20.7357
0.364829
-0.146424
-20.7887
0.268558
-0.433904
0.376252
-0.195603
0.290769
-0.528056
20.7923
20.7496
0.365441
-0.146154
-20.8028
0.268709
-0.434837
0.376867
-0.195323
0.290907
-0.529018
20.8062
20.7629
0.366039
-0.145885
-20.8162
0.268857
-0.435731
0.377466
-0.195066
0.291051
-0.529943
20.8194
20.7753
0.366615
-0.145644
-20.8286
0.268885
-0.436582
0.378041
-0.194819
0.291315
-0.530817
20.8316
20.787
0.367135
-0.145426
-20.8404
0.269025
-0.437366
0.378551
-0.194632
0.29145
-0.531606
20.8433
20.7984
0.367494
-0.143854
-20.853
0.268935
-0.437966
0.378934
-0.195385
0.291286
-0.5322
20.8557
20.8113
0.365452
-0.143721
-20.8636
0.266546
-0.435933
0.376347
-0.19361
0.289181
-0.531673
20.871
20.4683
0.406331
2.22803
-20.7919
-2.15126
-0.159527
0.334362
0.728869
-0.731058
-0.230751
20.3669
0.12773
18.1451
0.384022
18.1742
-0.134899
-18.1393
0.111992
0.351449
-0.414786
18.6025
-0.239055
18.5482
0.431302
-18.5929
-0.39553
-0.134482
91.1323
-2.35378
-0.554108
-90.9625
0.445892
2.29227
90.9898
2.08273
-0.796905
-90.8473
0.696345
-2.12463
0.128633
18.1379
0.382786
18.1709
-0.135537
-18.1356
0.112254
0.350921
-0.412713
18.5899
-0.244472
-2.35281
0.400363
2.3162
90.9561
2.13194
-0.487966
0.645451
-2.14847
90.8488
18.5378
0.429862
-18.582
-0.394158
-0.137133
91.1122
-2.35199
-0.555219
-90.9474
0.452624
2.28981
90.9822
2.08224
-0.797827
-90.8465
0.703279
-2.12343
0.128484
18.1353
0.382285
18.1712
-0.135572
-18.1354
0.111997
0.350796
80.1483
-0.233721
-81.2122
1.18892
-1.68675
-0.411345
18.5799
-0.24692
-2.35104
0.406248
2.3138
90.9344
2.13135
-0.492497
0.649572
-2.14734
90.8412
18.5299
0.428958
-18.5748
-0.39344
-0.137207
91.0898
-2.35041
-0.561031
-90.9259
0.459878
2.28766
90.9623
2.0814
-0.79985
-90.8296
0.707733
-2.12206
0.128156
18.1359
0.382153
-2.31261
1.45226
1.48104
-1.66164
81.1893
18.1741
-0.135324
-18.138
0.111581
0.350877
80.103
-0.244392
1.7945
-81.1659
1.19872
-1.68599
-0.410616
18.5737
-0.249455
-2.34955
0.407106
2.31187
90.9141
2.13045
-0.494789
0.654353
-2.14583
90.8182
18.5272
0.428522
-18.5716
-0.393219
-0.137833
91.0655
-2.34914
-0.56282
-90.9018
0.462149
2.28611
90.9368
2.08039
-0.801997
-90.8068
0.711968
-2.12031
0.127674
18.1391
0.382226
-2.32156
1.4515
1.48988
-1.66093
81.1441
18.179
-0.134809
-18.1428
0.111091
0.351113
80.0625
-0.252988
1.79375
-81.1232
1.20542
-1.6855
-0.410427
18.5714
-0.249989
-2.34836
0.409081
2.31051
90.8899
2.1293
-0.496787
0.658111
-2.14406
90.7902
18.5279
0.428425
-18.5719
-0.393377
-0.13789
91.0419
-2.34804
-0.564341
-90.8779
0.463405
2.28501
90.9005
2.07902
-0.803899
-90.772
0.714939
-2.11852
0.127171
18.1442
0.382439
-2.32866
1.45104
1.49577
-1.6605
81.1049
18.1855
-0.134201
-18.1491
0.110573
0.351439
80.0297
-0.259795
1.79329
-81.0878
1.20997
-1.68532
-0.410601
18.5724
-0.249973
-2.34731
0.410133
2.3095
90.8666
2.12783
-0.498889
0.661002
-2.1423
90.7529
18.5308
0.428547
-18.5746
-0.393716
-0.13772
91.0202
-2.34714
-0.565487
-90.8557
0.463927
2.28419
90.8613
2.0775
-0.805981
-90.7332
0.717337
-2.1169
0.126635
18.1508
0.382756
-2.33417
1.45077
1.49976
-1.66039
81.0737
18.1928
-0.133597
-18.1563
0.110094
0.351817
80.0053
-0.264884
1.79302
-81.061
1.21282
-1.6853
-0.410945
18.5755
-0.249767
-2.34653
0.410418
2.30878
90.8456
2.12632
-0.501049
0.663202
-2.14074
90.7136
18.5351
0.42879
-18.5787
-0.394149
-0.137425
91.0013
-2.34651
-0.566252
-90.8361
0.463886
2.28365
90.8195
2.07605
-0.807891
-90.6911
0.719016
-2.11549
0.126148
18.1582
0.383127
-2.33828
1.45065
1.50225
-1.66039
81.0511
18.2007
-0.133
-18.1641
0.10964
0.35223
79.989
-0.26868
1.79293
-81.0424
1.21457
-1.68539
-0.411378
18.5799
-0.249461
-2.34599
0.410319
2.30832
90.8275
2.12492
-0.50306
0.664763
-2.13942
90.6723
18.5415
0.429164
-18.5838
-0.394637
-0.138402
90.9857
-2.34609
-0.566863
-90.8167
0.460594
2.28337
90.7862
2.07505
-0.809775
-90.6572
0.720225
-2.11447
0.1257
18.1661
0.383535
-2.34415
1.45071
1.50377
-1.66057
81.0392
18.2088
-0.132504
-18.1721
0.109173
0.35266
79.9792
-0.268276
1.7931
-81.034
1.2158
-1.68577
-0.411868
18.5852
-0.247854
-2.34566
0.412888
2.30821
90.8129
2.12399
-0.505015
0.66589
-2.1385
90.6398
18.5472
0.429539
-18.5895
-0.395149
-0.138047
90.9764
-2.34604
-0.567311
-90.8066
0.460182
2.2834
90.7563
2.07421
-0.814408
-90.6234
0.721098
-2.11385
0.125464
18.1741
0.383961
-2.34632
1.45094
1.50461
-1.66089
81.0308
18.2169
-0.132059
-18.1801
0.108751
0.353095
79.9774
-0.273148
1.79345
-81.0279
1.21637
-1.68614
-0.41238
18.591
-0.247511
-2.3457
0.412476
2.30823
90.8014
2.12316
-0.50652
0.669751
-2.13804
90.608
18.5545
0.429956
-18.5955
-0.395689
-0.138966
90.9701
-2.34619
-0.570648
-90.7967
0.459733
2.28365
90.7275
2.07369
-0.81577
-90.5966
0.724637
-2.11345
0.125278
18.1821
0.384392
-2.34486
1.45149
1.505
-1.66133
81.0271
18.2249
-0.131721
-18.1882
0.108643
0.353481
79.9818
-0.277313
1.80511
-81.0399
1.21676
-1.68652
-0.412935
18.597
-0.245863
-2.34597
0.412079
2.30852
90.7959
2.12285
-0.511274
0.667299
-2.13767
90.5863
18.5608
0.430347
-18.603
-0.396233
-0.137354
90.9674
-2.34669
-0.57456
-90.7929
0.462821
2.28398
90.7154
2.07363
-0.827035
-90.574
0.725512
-2.11346
0.124959
18.1902
0.384766
-2.34321
1.43984
1.50615
-1.66123
81.0403
18.2331
-0.13015
-18.1975
0.108366
0.353698
79.9999
-0.286002
1.80441
-81.0504
1.21785
-1.68582
-0.413436
18.6046
-0.246861
-2.34662
0.411924
2.30908
90.794
2.12261
-0.510362
0.67127
-2.13774
90.5696
18.5673
0.430608
-18.6095
-0.396656
-0.135611
90.9789
-2.34855
-0.579336
-90.8012
0.464645
2.28551
90.7159
2.07298
-0.842428
-90.5666
0.733862
-2.11367
0.124649
18.1994
0.384952
-2.33374
1.44323
1.49918
-1.66179
81.0531
18.2421
-0.128085
-18.2056
0.106223
0.350785
80.0325
-0.226331
1.80641
-81.0386
1.13331
-1.70727
-0.413841
18.6112
-0.247575
-2.34793
0.418126
2.31066
90.8046
2.12468
-0.522313
0.680387
-2.1391
90.5722
18.5783
0.429111
-18.619
-0.39534
-0.136776
91.0015
-2.35227
-0.484271
-90.8197
0.35347
2.3013
90.7749
2.06268
-0.932329
-90.5728
0.783246
-2.1157
0.122509
18.2107
0.380915
-1.97466
1.53712
1.14839
-1.7007
81.0223
18.4367
0.740337
-18.3522
-0.744246
0.325686
10.7524
3.79854
-80.8303
-9.82635
-3.58976
-0.413679
18.6239
-0.245539
-2.37505
-0.146685
2.34505
90.8326
2.11191
-0.624206
0.751522
-2.13365
90.6693
18.7603
0.489578
-18.7665
-0.593401
2.33801
89.8545
-2.63785
6.64812
-90.3525
-6.64449
3.13218
90.9651
3.12391
18.0606
-90.6501
-18.0492
-3.45032
-0.46806
18.4199
0.341291
-86.267
-5.17152
2.31399
86.2779
2.65541
-88.9081
4.0454
-3.7758
-2.53083
88.5139
-0.379721
18.7603
0.692311
-3.45384
2.65187
89.4511
2.26036
-0.019911
0.268834
-1.90203
90.3579
21.2246
-1.01906
1.81548
-0.6371
-0.163701
20.6612
0.364007
-0.140395
-20.7172
0.264866
-0.432474
21.229
-0.637476
1.81448
-1.01948
-0.161871
0.375238
-0.192459
20.7175
0.287685
-0.526751
-21.2352
21.2403
1.81355
-1.0206
-0.63727
-0.160842
-0.63881
-1.02008
1.81381
-0.161114
21.2519
-1.02132
1.8132
-0.642258
-0.161172
20.6661
0.363157
-0.14356
-20.7213
0.26682
-0.431202
21.2616
-0.639565
1.81319
-1.02154
-0.161793
0.37447
-0.195352
20.7228
0.289456
-0.525305
-21.2718
21.2798
1.81377
-1.02238
-0.635344
-0.16406
-0.638629
-1.02198
1.81334
-0.162896
21.2933
-1.02299
1.81398
-0.639186
-0.165362
20.6745
0.362941
-0.145068
-20.7294
0.267765
-0.430761
21.3044
-0.635654
1.81443
-1.02312
-0.166707
0.374288
-0.196785
20.7317
0.290182
-0.524828
-21.3154
21.3238
1.81571
-1.02379
-0.630743
-0.169608
-0.63426
-1.02347
1.81497
-0.168228
21.3375
-1.02433
1.81618
-0.634515
-0.171012
20.6858
0.363055
-0.145696
-20.7403
0.268143
-0.430956
21.3484
-0.630963
1.81683
-1.02443
-0.172365
0.374454
-0.197347
20.7432
0.290463
-0.525002
-21.3591
21.3671
1.81841
-1.02501
-0.626375
-0.175016
-0.629665
-1.02473
1.81752
-0.173814
21.3802
-1.02551
1.819
-0.630417
-0.1762
20.6991
0.363407
-0.145766
-20.7534
0.268289
-0.431586
21.3905
-0.62724
1.81975
-1.02553
-0.177249
0.374835
-0.19738
20.7567
0.29057
-0.525659
-21.4004
21.4076
1.8214
-1.02603
-0.623098
-0.179418
-0.626205
-1.02579
1.8205
-0.178442
21.4198
-1.02651
1.82198
-0.62733
-0.180384
20.7135
0.363932
-0.145625
-20.7678
0.268443
-0.432491
21.4292
-0.624341
1.82271
-1.02651
-0.181218
0.375377
-0.197219
20.7713
0.290704
-0.526585
-21.4382
21.4444
1.82433
-1.02695
-0.62054
-0.183015
-0.623487
-1.02674
1.82345
-0.18221
21.4556
-1.02738
1.82488
-0.624942
-0.183824
20.7282
0.364523
-0.145392
-20.7825
0.268604
-0.433445
21.464
-0.622099
1.82558
-1.02734
-0.184508
0.375978
-0.196978
20.7859
0.290847
-0.52756
-21.472
21.4772
1.82711
-1.0277
-0.618602
-0.186
-0.62141
-1.02753
1.82627
-0.185343
21.4875
-1.02811
1.82761
-0.62318
-0.186647
20.7425
0.365127
-0.145125
-20.7969
0.268761
-0.434387
21.495
-0.620467
1.82826
-1.02803
-0.187195
0.376589
-0.196711
20.8002
0.290992
-0.528531
-21.5021
21.5064
1.82968
-1.02833
-0.617207
-0.18844
-0.61993
-1.02819
1.8289
-0.187885
21.5158
-1.02871
1.83013
-0.621923
-0.188959
20.7561
0.365735
-0.14485
-20.8106
0.268909
-0.435305
21.5224
-0.619346
1.83073
-1.0286
-0.189376
0.377198
-0.196445
20.8137
0.291134
-0.529475
-21.5287
21.5322
1.83204
-1.02886
-0.616282
-0.190415
-0.618876
-1.02874
1.83131
-0.189983
21.5409
-1.02921
1.83244
-0.621074
-0.19085
20.769
0.366328
-0.14459
-20.8236
0.269058
-0.436182
21.5468
-0.618612
1.83299
-1.02908
-0.191158
0.37779
-0.196199
20.8265
0.291279
-0.53038
-21.5524
21.5552
1.8342
-1.02929
-0.615696
-0.192029
-0.61821
-1.02919
1.83352
-0.191688
21.5632
-1.02962
1.83454
-0.620546
-0.192403
20.781
0.366884
-0.144368
-20.8357
0.26921
-0.437004
21.5685
-0.618301
1.83505
-1.02948
-0.192531
0.378344
-0.195992
20.8385
0.29143
-0.531228
-21.5735
21.5785
1.83599
-1.02967
-0.618069
-0.193228
-0.617932
-1.02958
1.83553
-0.193042
21.5833
-1.02978
1.83644
-0.61782
-0.19364
20.7925
0.367332
-0.144154
-20.8472
0.269191
-0.4377
21.5881
-0.618135
1.83689
-1.02987
-0.193696
0.378767
-0.195752
20.8498
0.291619
-0.531932
-21.5927
21.5973
1.83778
-1.03005
-0.61799
-0.194381
-0.617722
-1.02997
1.83734
-0.194259
21.6021
-1.03013
1.83821
-0.618135
-0.194697
20.8043
0.36742
-0.144523
-20.8582
0.268783
-0.437815
21.6084
-0.61723
1.83816
-1.03057
-0.196693
0.378653
-0.195964
20.8631
0.290605
-0.532107
-21.6132
21.6306
1.83429
-1.03444
-0.55506
-0.262262
-0.59114
-1.03086
1.83934
-0.222088
21.6307
-1.02309
1.85276
-0.0225032
-0.807258
20.8378
0.358102
-0.116502
-20.8807
0.239485
-0.438134
21.7168
0.657552
1.80098
-1.05474
-1.48982
0.385895
-0.0192971
20.893
0.113739
-0.53555
-20.885
18.5175
3.31853
-0.252483
18.8639
-19.5625
6.85141
-0.84015
2.27843
-7.45789
-1.43308
1.15127
-4.33279
0.100066
0.312411
-0.0781894
-0.423032
-0.487083
-0.357524
-77.9403
1.81363
-0.574628
362.957
0.70095
0.648438
0.86283
1.06105
-2.13246
-2.0163
-2.01635
363.029
0.656667
0.709271
1.0814
0.882759
-2.01552
-2.08261
-2.01554
0.100747
0.311864
-0.0787202
-0.421502
-0.485734
-0.356208
-77.8837
1.80929
-0.578439
362.908
0.699945
0.647823
0.861458
1.05925
-2.13182
-2.01491
-2.01486
362.973
0.655821
0.708447
1.07661
0.880933
-2.01421
-2.08193
-2.01418
0.100738
0.310907
-0.0797624
-0.42057
-0.484835
-0.355266
-77.8287
1.80664
-0.581486
-4.96178
355.167
2.30393
1.30372
1.54919
-1.87816
-1.94687
-2.25966
-1.75831
8.47432
362.837
0.699908
0.647612
0.862994
1.05514
-2.13104
-2.01349
-2.01352
382.11
-5.20135
355.224
1.55538
0.243199
1.30994
-1.94643
-1.87762
-1.75822
-2.25906
8.42481
362.897
0.656193
0.708838
1.0759
0.883091
-2.0128
-2.081
-2.0127
382.836
0.100403
0.309832
-0.0809544
-0.420086
-0.484252
-0.354695
-77.7835
1.80493
-0.581248
-4.98737
355.017
2.31401
1.30772
1.5542
-1.87773
-1.94624
-2.25929
-1.75825
8.47672
362.757
0.700433
0.648186
0.86259
1.05469
-2.13004
-2.01184
-2.01198
382.08
-5.22471
355.069
1.55864
0.252679
1.31246
-1.94596
-1.87733
-1.7582
-2.25874
8.42671
362.807
0.656879
0.709436
1.07576
0.882946
-2.01106
-2.07973
-2.01102
382.802
0.0998679
0.308783
-0.0821375
-0.419957
-0.483958
-0.354419
-77.7479
1.80386
-0.580217
-5.01009
354.862
2.32196
1.30947
1.55622
-1.87744
-1.94591
-2.25896
-1.75817
8.47868
362.658
0.700846
0.648721
0.862472
1.05458
-2.1287
-2.01016
-2.01029
382.036
-5.24706
354.915
1.55994
0.260356
1.31356
-1.94566
-1.87709
-1.7581
-2.2584
8.42849
362.699
0.657275
0.709734
1.07573
0.882977
-2.00933
-2.07825
-2.00931
382.748
0.0992099
0.307848
-0.0832298
-0.420071
-0.483869
-0.354344
-77.7222
1.80328
-0.578654
-5.03081
354.712
2.32828
1.31008
1.55673
-1.87722
-1.94562
-2.25857
-1.75803
8.47977
362.543
0.700953
0.648935
0.862502
1.05452
-2.12716
-2.00851
-2.00858
381.972
-5.26654
354.771
1.56011
0.266289
1.31379
-1.94541
-1.8769
-1.75794
-2.258
8.42931
362.578
0.65731
0.709663
1.07561
0.88297
-2.00774
-2.07678
-2.00778
382.675
0.0985512
0.307024
-0.0842188
-0.420307
-0.483918
-0.354396
-77.7057
1.80306
-0.576831
-5.04839
354.574
2.33305
1.30998
1.55658
-1.87705
-1.9454
-2.25815
-1.75784
8.48015
362.417
0.700676
0.648745
0.862386
1.05429
-2.12573
-2.0072
-2.00715
381.899
-5.2828
354.64
1.55984
0.270696
1.31343
-1.94522
-1.87677
-1.75775
-2.25758
8.4297
362.456
0.656964
0.709238
1.07531
0.882777
-2.00654
-2.07552
-2.00658
382.604
0.0979144
0.30629
-0.0851147
-0.420635
-0.484043
-0.354555
-77.6969
1.80318
-0.574905
-5.07601
354.462
2.33661
1.30955
1.5562
-1.87695
-1.94524
-2.25775
-1.75772
8.48039
362.299
0.700194
0.648286
0.862134
1.05693
-2.12459
-2.00616
-2.00604
381.811
-5.29694
354.536
1.56238
0.270862
1.31014
-1.94512
-1.87673
-1.75767
-2.25729
8.42971
362.332
0.65642
0.708684
1.07794
0.879634
-2.0056
-2.07465
-2.0057
382.506
0.0973759
0.305707
-0.0858663
-0.421004
-0.484275
-0.354809
-77.6972
1.80357
-0.570294
-5.08253
354.359
2.34199
1.30617
1.55867
-1.877
-1.94523
-2.25756
-1.75765
8.48058
362.18
0.699551
0.647572
0.858912
1.05651
-2.12375
-2.00548
-2.00529
381.737
-5.3083
354.431
1.56189
0.278897
1.31254
-1.94519
-1.87689
-1.75759
-2.2571
8.43043
362.229
0.65561
0.707845
1.0774
0.879158
-2.00509
-2.07389
-2.00533
382.432
0.0968951
0.305206
-0.0865316
-0.42141
-0.484571
-0.355081
-77.7023
1.80422
-0.565964
-5.1056
354.281
2.338
1.30571
1.5554
-1.87712
-1.94541
-2.25738
-1.75774
8.48098
362.074
0.704416
0.646725
0.861404
1.05905
-2.12311
-2.00517
-2.00499
381.678
-5.32642
354.367
1.5615
0.283232
1.3121
-1.94536
-1.87709
-1.75779
-2.25716
8.43112
362.132
0.652275
0.710151
1.07705
0.878853
-2.00479
-2.07363
-2.00507
382.369
0.096523
0.306071
-0.0870645
-0.421809
-0.484862
-0.355365
-77.7089
1.80485
-0.567147
-5.12598
354.229
2.33918
1.30553
1.5553
-1.87733
-1.94559
-2.25736
-1.75778
8.48233
362.005
0.703637
0.646114
0.861024
1.06151
-2.12293
-2.0051
-2.00488
381.655
-5.35867
354.349
1.56085
0.290518
1.31443
-1.94544
-1.87713
-1.75784
-2.25703
8.43253
362.096
0.651613
0.715227
1.0857
0.878625
-2.00466
-2.07345
-2.00498
382.372
0.0973331
0.305656
-0.0875693
-0.422108
-0.485118
-0.355576
-77.7245
1.80499
-0.568336
-5.19246
354.273
2.34034
1.30931
1.5539
-1.87684
-1.94512
-2.25683
-1.75727
8.47956
362.035
0.706321
0.646178
0.858289
1.07656
-2.12229
-2.00488
-2.00447
381.792
-5.40811
354.425
1.55444
0.285842
1.30595
-1.94448
-1.87557
-1.75734
-2.2562
8.43548
362.152
0.656731
0.718537
1.1008
0.87205
-2.00647
-2.0763
-2.00727
382.417
0.0929818
0.302625
-0.091783
-0.420964
-0.483909
-0.354715
-77.7527
1.7952
-0.563724
-5.13059
354.366
2.30842
1.23115
1.53825
-1.87015
-1.94106
-2.25458
-1.7518
8.47215
362.245
0.715131
0.648071
0.844825
1.07298
-2.12619
-1.99388
-2.0075
381.958
-2.71816
354.754
1.22011
-1.14631
-0.169431
-1.93968
-1.90736
-1.77947
-2.25414
8.64318
361.904
0.704573
0.80594
0.720904
0.781514
-2.0055
-2.05761
-1.98244
382.602
-0.498691
-0.258786
-0.378056
-0.497105
-0.608966
-0.499117
-77.3745
1.62946
6.26741
21.8135
-2.09893
-10.8268
-2.60231
-2.27179
-2.03124
-2.3017
-2.17262
10.0051
349.973
-6.33012
-0.319875
-0.698385
-4.71779
-2.29957
-2.95891
-2.17898
-3.33257
-13.9765
-2.1062
-1.90903
-1.78941
10.63
0.347252
-0.0922577
15.8291
-0.210839
0.16175
0.263781
-0.432964
20.6611
0.36438
-0.140391
10.6046
0.336011
-0.046795
17.323
0.0352841
-0.146652
0.288078
-0.526314
-20.6622
0.374925
-0.1921
-10.6471
10.6219
0.337252
-0.0460398
-15.8218
17.3164
0.0332977
-0.146101
-10.6161
0.348498
-0.0914719
-17.3179
-0.213131
0.162385
10.6529
0.34892
-0.0913995
15.8218
-0.214998
0.162441
0.266341
-0.431418
20.6646
0.363317
-0.144073
10.6276
0.337665
-0.045999
17.318
0.0316691
-0.146119
0.289507
-0.525125
-20.6681
0.374337
-0.194548
-10.6696
10.6441
0.33887
-0.0460662
-15.8265
17.3237
0.0320928
-0.146366
-10.6388
0.350149
-0.0915254
-17.3217
-0.214731
0.162467
10.6749
0.350562
-0.0916623
15.8294
-0.216158
0.162479
0.267452
-0.430802
20.6724
0.36298
-0.145922
10.6493
0.339241
-0.046165
17.3281
0.0309065
-0.146466
0.290092
-0.524825
-20.6773
0.374259
-0.195686
-10.6898
10.6639
0.340281
-0.0465218
-15.8403
17.34
0.0320994
-0.146822
-10.6592
0.351612
-0.0920804
-17.3363
-0.215105
0.162524
10.6943
0.351958
-0.0922484
15.8446
-0.216376
0.162551
0.267922
-0.430866
20.683
0.363016
-0.146728
10.6684
0.340589
-0.0466857
17.3458
0.0310265
-0.146939
0.290324
-0.525127
-20.6892
0.374473
-0.196102
-10.7072
10.681
0.341466
-0.0471492
-15.8585
17.3605
0.0324894
-0.147314
-10.6769
0.352842
-0.0927947
-17.3561
-0.215076
0.162611
10.7112
0.353141
-0.0929783
15.8634
-0.216339
0.162653
0.26811
-0.431393
20.6958
0.363309
-0.146916
10.6849
0.341729
-0.0473268
17.3669
0.0314785
-0.147425
0.290428
-0.525877
-20.7029
0.374916
-0.196072
-10.7225
10.696
0.342513
-0.0477973
-15.8783
17.3825
0.0329381
-0.147747
-10.6924
0.353917
-0.0935394
-17.378
-0.214949
0.162733
10.726
0.354185
-0.0937067
15.8833
-0.216208
0.162787
0.268249
-0.432253
20.7101
0.363805
-0.146806
10.6994
0.342755
-0.0479592
17.3889
0.0318976
-0.147835
0.290574
-0.526831
-20.7175
0.375486
-0.195896
-10.736
10.7093
0.343469
-0.0483666
-15.8978
17.4039
0.0334109
-0.148129
-10.7061
0.354898
-0.0942025
-17.3997
-0.21478
0.162872
10.7391
0.355137
-0.0943498
15.9025
-0.216
0.162916
0.268412
-0.433205
20.7248
0.364388
-0.146592
10.7124
0.343685
-0.0485102
17.41
0.0323932
-0.148207
0.290717
-0.527807
-20.7321
0.376091
-0.195643
-10.748
10.7211
0.34433
-0.0488688
-15.916
17.4237
0.033914
-0.14847
-10.7183
0.355778
-0.0947874
-17.4199
-0.21454
0.162988
10.7508
0.355997
-0.0949183
15.9203
-0.215759
0.163023
0.268568
-0.434153
20.7392
0.364991
-0.146327
10.7238
0.344523
-0.0489985
17.4294
0.0328915
-0.148544
0.290855
-0.528776
-20.7462
0.376707
-0.195363
-10.7587
10.7316
0.345111
-0.0493191
-15.9326
17.4418
0.0343865
-0.148782
-10.7291
0.356576
-0.0953132
-17.4385
-0.214306
0.163079
10.7612
0.356775
-0.0954276
15.9365
-0.215531
0.163111
0.268716
-0.435078
20.753
0.365599
-0.146052
10.734
0.345284
-0.0494363