/*--------------------------------*- C++ -*----------------------------------*\
  =========                 |
  \\      /  F ield         | OpenFOAM: The Open Source CFD Toolbox
   \\    /   O peration     | Website:  https://openfoam.org
    \\  /    A nd           | Version:  10
     \\/     M anipulation  |
\*---------------------------------------------------------------------------*/
FoamFile
{
    format      ascii;
    class       volVectorField;
    location    "2000";
    object      U;
}
// * * * * * * * * * * * * * * * * * * * * * * * * * * * * * * * * * * * * * //

dimensions      [0 1 -1 0 0 0 0];

internalField   nonuniform List<vector> 
8649
(
(0.290915 -0.0476865 14.5035)
(0.289895 -0.0480048 14.494)
(0.425163 -0.0397024 17.2281)
(0.410093 -0.0598256 18.0113)
(0.484831 0.00764136 18.8947)
(0.460162 -0.0293185 18.8581)
(0.440041 -0.0514353 18.9702)
(0.289224 -0.0480645 14.4839)
(0.460661 0.0131115 17.1813)
(0.424977 -0.0398044 17.2289)
(0.410069 -0.0598378 18.0152)
(0.484686 0.00763968 18.8955)
(0.460127 -0.029225 18.859)
(0.439994 -0.0513465 18.9708)
(0.28876 -0.0480213 14.4745)
(0.329866 -0.0758887 17.329)
(0.46054 0.0128283 17.1792)
(0.424815 -0.0399196 17.2282)
(0.410114 -0.0598334 18.0186)
(0.380023 -0.0677042 18.3654)
(0.48456 0.00767408 18.8961)
(0.460116 -0.0291243 18.8598)
(0.439994 -0.0512332 18.9714)
(0.414725 -0.0594119 19.1306)
(0.161636 -0.0993444 12.6576)
(0.288449 -0.0478891 14.4668)
(0.329918 -0.0759842 17.3313)
(0.460459 0.012606 17.1767)
(0.424671 -0.0400445 17.2265)
(0.410179 -0.0598628 18.0214)
(0.380179 -0.067554 18.366)
(0.484462 0.00772459 18.8965)
(0.460125 -0.0290122 18.8607)
(0.440022 -0.0511068 18.9721)
(0.41476 -0.0593827 19.1304)
(0.161715 -0.0993823 12.6651)
(0.360488 0.0464817 14.0928)
(0.288274 -0.0476993 14.4608)
(0.329982 -0.0760691 17.3328)
(0.452714 0.0646381 17.644)
(0.460412 0.0124815 17.1739)
(0.424544 -0.0401606 17.224)
(0.410251 -0.0598994 18.0235)
(0.380334 -0.0674207 18.3666)
(0.484009 0.0570341 19.1295)
(0.484393 0.0077919 18.8967)
(0.460162 -0.0288954 18.8614)
(0.440069 -0.0509682 18.9729)
(0.414814 -0.0593323 19.1303)
(0.161942 -0.0994537 12.6747)
(0.403011 0.165066 16.6226)
(0.360531 0.0465645 14.0971)
(0.288213 -0.047488 14.4567)
(0.330062 -0.0762495 17.3337)
(0.409717 0.122372 19.3908)
(0.450929 0.120757 18.5106)
(0.452601 0.0645609 17.643)
(0.460389 0.0123937 17.171)
(0.424441 -0.0402699 17.2211)
(0.41033 -0.0599287 18.0249)
(0.380486 -0.0673049 18.3671)
(0.47373 0.0942423 19.6218)
(0.483949 0.0571121 19.1297)
(0.484352 0.0078634 18.8967)
(0.460212 -0.028795 18.862)
(0.440142 -0.0508343 18.9739)
(0.414876 -0.0592951 19.1303)
(0.162267 -0.0995638 12.6859)
(0.403076 0.164899 16.6217)
(0.360623 0.0466651 14.1019)
(0.28824 -0.047277 14.4542)
(0.330093 -0.0763522 17.3341)
(0.409788 0.122477 19.3914)
(0.450879 0.120768 18.5105)
(0.452517 0.0644759 17.6416)
(0.460382 0.012333 17.1683)
(0.424362 -0.0403849 17.2178)
(0.410414 -0.0599578 18.0258)
(0.380632 -0.0671872 18.3676)
(0.473707 0.0943066 19.6219)
(0.48391 0.0571865 19.1299)
(0.484338 0.00792669 18.8965)
(0.46027 -0.0287223 18.8623)
(0.440212 -0.0507196 18.9746)
(0.414949 -0.0592452 19.1302)
(0.162656 -0.0996754 12.6981)
(0.403148 0.164763 16.6208)
(0.360744 0.046769 14.1069)
(0.288345 -0.0470783 14.4531)
(0.330134 -0.0765117 17.3336)
(0.409796 0.122553 19.3915)
(0.450865 0.120789 18.5104)
(0.452453 0.0644151 17.64)
(0.460388 0.0122955 17.1658)
(0.424307 -0.0404965 17.2145)
(0.410512 -0.0600303 18.026)
(0.380771 -0.0671719 18.3679)
(0.473703 0.0943535 19.6218)
(0.483893 0.0572663 19.13)
(0.484328 0.00799647 18.896)
(0.460308 -0.0286818 18.8624)
(0.440319 -0.0506428 18.9756)
(0.415045 -0.0592518 19.1303)
(0.163082 -0.0997888 12.7108)
(0.403218 0.164659 16.6197)
(0.360888 0.0468732 14.112)
(0.28848 -0.0469015 14.453)
(0.330151 -0.0765891 17.3338)
(0.40991 0.122671 19.3923)
(0.450878 0.120808 18.5101)
(0.452406 0.0643523 17.6381)
(0.460408 0.0122736 17.1634)
(0.424271 -0.0405821 17.2113)
(0.410546 -0.060038 18.0259)
(0.380915 -0.0669931 18.3682)
(0.473719 0.0944155 19.6221)
(0.483905 0.0572834 19.1301)
(0.484397 0.00802365 18.8955)
(0.460399 -0.0286 18.8621)
(0.44037 -0.05048 18.976)
(0.415128 -0.0591393 19.1303)
(0.163519 -0.0998856 12.7237)
(0.361037 0.0469717 14.117)
(0.288665 -0.046745 14.4537)
(0.330183 -0.0766947 17.3315)
(0.409914 0.122853 19.3921)
(0.450917 0.120843 18.5097)
(0.452367 0.0643278 17.6363)
(0.460427 0.0122784 17.1613)
(0.424254 -0.04069 17.2083)
(0.410724 -0.0603376 18.0247)
(0.380999 -0.0675951 18.3684)
(0.47375 0.0945776 19.6217)
(0.483866 0.0574837 19.1295)
(0.484293 0.00809038 18.8944)
(0.460318 -0.0287264 18.8627)
(0.440552 -0.0508987 18.9774)
(0.415323 -0.059497 19.1309)
(0.361166 0.0470412 14.122)
(0.288844 -0.0466179 14.4552)
(0.330251 -0.0770281 17.3377)
(0.410148 0.122415 19.3941)
(0.450968 0.120732 18.5094)
(0.452341 0.0641361 17.6343)
(0.460517 0.012203 17.1594)
(0.424261 -0.0407149 17.2057)
(0.410254 -0.0598828 18.0276)
(0.381331 -0.0655294 18.369)
(0.473736 0.0941188 19.6237)
(0.484059 0.0569932 19.1312)
(0.485096 0.00786418 18.8947)
(0.460786 -0.0283996 18.859)
(0.440218 -0.0493379 18.9755)
(0.415174 -0.0583866 19.1293)
(0.361195 0.0471008 14.1268)
(0.288943 -0.0463247 14.4575)
(0.329571 -0.0758414 17.3087)
(0.409893 0.123612 19.3899)
(0.450945 0.120821 18.5098)
(0.452274 0.0643744 17.6332)
(0.460591 0.012423 17.158)
(0.424304 -0.0413926 17.2038)
(0.412204 -0.061863 18.0117)
(0.380659 -0.072724 18.3698)
(0.473816 0.0955795 19.6188)
(0.483578 0.0585628 19.1247)
(0.482739 0.00861705 18.8904)
(0.459838 -0.0292583 18.8731)
(0.441604 -0.0552444 18.9869)
(0.416265 -0.0625745 19.1369)
(0.360654 0.047205 14.1305)
(0.286372 -0.0456567 14.4609)
(0.337295 -0.078953 17.4321)
(0.451908 0.0637045 17.6313)
(0.46149 0.0121715 17.1552)
(0.4232 -0.0430414 17.2128)
(0.404562 -0.0593256 18.0901)
(0.381244 -0.0602736 18.3663)
(0.485006 0.0548572 19.1503)
(0.49018 0.00555119 18.9053)
(0.460825 -0.0334881 18.817)
(0.436978 -0.0451864 18.949)
(0.414036 -0.0534591 19.117)
(0.2755 -0.0544571 14.3403)
(0.461957 0.0222142 17.1168)
(0.432904 -0.0463316 17.0437)
(0.266196 -0.0721783 12.7908)
(0.257647 -0.0733562 12.7913)
(0.265188 -0.0731392 12.7922)
(0.257206 -0.0738182 12.7951)
(0.264729 -0.0735355 12.7968)
(0.257115 -0.0740053 12.8011)
(0.264671 -0.0736732 12.8031)
(0.257301 -0.0740603 12.8087)
(0.264888 -0.0737047 12.8108)
(0.257696 -0.0740615 12.8172)
(0.265299 -0.0736926 12.8196)
(0.258202 -0.0740629 12.8263)
(0.265807 -0.0736776 12.8287)
(0.258714 -0.0740599 12.8353)
(0.266318 -0.0736615 12.8376)
(0.259221 -0.0740564 12.844)
(0.266822 -0.0736444 12.8462)
(0.259706 -0.074054 12.8522)
(0.267305 -0.0736336 12.8544)
(0.26017 -0.0740556 12.86)
(0.267761 -0.0736247 12.862)
(0.26059 -0.0740599 12.8673)
(0.268165 -0.0736214 12.8693)
(0.260899 -0.0740056 12.8743)
(0.268456 -0.0735274 12.8763)
(0.259676 -0.0731512 12.8812)
(0.267569 -0.0730522 12.8831)
(0.158987 -0.0454311 12.674)
(0.156494 -0.0489196 12.4622)
(0.233789 -0.0461378 13.1709)
(0.231941 -0.0489941 13.1661)
(0.302566 -0.0630149 13.8549)
(0.298081 -0.0664742 13.8442)
(0.407524 -0.0414825 16.3209)
(0.380776 -0.0471702 16.6446)
(0.233099 -0.0465577 13.1653)
(0.231722 -0.0491411 13.1636)
(0.300981 -0.0642102 13.8454)
(0.4074 -0.04171 16.3193)
(0.380696 -0.0472614 16.6442)
(0.296971 -0.0672077 13.8363)
(0.407186 -0.0418594 16.3181)
(0.380748 -0.047346 16.6442)
(0.232927 -0.046647 13.1631)
(0.231772 -0.0491312 13.1636)
(0.32304 -0.095249 15.4256)
(0.299903 -0.0648947 13.8377)
(0.407084 -0.042026 16.3161)
(0.380658 -0.0474685 16.643)
(0.296346 -0.0675488 13.8312)
(0.406901 -0.0421205 16.3142)
(0.380646 -0.0475908 16.6415)
(0.23298 -0.0466054 13.1634)
(0.323314 -0.095301 15.4286)
(0.231951 -0.0490588 13.1655)
(0.322976 -0.0960245 15.4168)
(0.299305 -0.0652157 13.8328)
(0.406826 -0.0422427 16.3119)
(0.380525 -0.0477104 16.6396)
(0.296093 -0.0676827 13.8291)
(0.406708 -0.0422724 16.3099)
(0.380422 -0.0478207 16.6365)
(0.233163 -0.046499 13.1657)
(0.32325 -0.0960183 15.4199)
(0.232222 -0.0489235 13.1691)
(0.322927 -0.0966289 15.4089)
(0.29908 -0.065335 13.831)
(0.406654 -0.04237 16.3076)
(0.380276 -0.0479069 16.6341)
(0.296124 -0.0676733 13.8295)
(0.406551 -0.0423829 16.3056)
(0.380128 -0.0480003 16.63)
(0.233412 -0.0463566 13.1693)
(0.323216 -0.0965799 15.4123)
(0.232543 -0.0487646 13.1737)
(0.322924 -0.0970893 15.4024)
(0.29914 -0.0653117 13.8316)
(0.406504 -0.0424649 16.3034)
(0.379974 -0.0480864 16.6273)
(0.296317 -0.0676225 13.8315)
(0.40642 -0.0424561 16.3017)
(0.379815 -0.0481832 16.6229)
(0.233726 -0.0461862 13.174)
(0.323222 -0.0970016 15.4061)
(0.232886 -0.0486104 13.179)
(0.322947 -0.0974191 15.3975)
(0.299347 -0.0652499 13.8338)
(0.406388 -0.0425198 16.2996)
(0.379668 -0.0482591 16.6201)
(0.296584 -0.067544 13.8346)
(0.406326 -0.0424923 16.2982)
(0.379534 -0.0483343 16.6157)
(0.234062 -0.0460247 13.1794)
(0.323252 -0.0973061 15.4016)
(0.233243 -0.048462 13.1847)
(0.322999 -0.0976569 15.3942)
(0.299623 -0.0651648 13.8371)
(0.406305 -0.0425496 16.2963)
(0.379403 -0.0484022 16.6131)
(0.296899 -0.067458 13.8385)
(0.406273 -0.042508 16.2953)
(0.379306 -0.0484594 16.609)
(0.234412 -0.0458731 13.1851)
(0.323313 -0.0975233 15.3987)
(0.233597 -0.0483425 13.1906)
(0.323092 -0.0978124 15.3922)
(0.299942 -0.0650736 13.841)
(0.406267 -0.0425653 16.2936)
(0.379192 -0.0485205 16.6065)
(0.297234 -0.0673737 13.8427)
(0.406257 -0.0425193 16.293)
(0.379138 -0.0485645 16.6029)
(0.234757 -0.0457506 13.191)
(0.323408 -0.0976687 15.397)
(0.233942 -0.0482394 13.1965)
(0.323207 -0.097919 15.3913)
(0.300278 -0.0649863 13.8453)
(0.406266 -0.0425734 16.2915)
(0.379042 -0.0486189 16.6005)
(0.297583 -0.0672959 13.8472)
(0.406284 -0.0425203 16.2912)
(0.379028 -0.0486401 16.5976)
(0.235094 -0.0456485 13.1969)
(0.323535 -0.0977667 15.3963)
(0.23425 -0.0481723 13.2024)
(0.323338 -0.0979586 15.3913)
(0.300621 -0.0649049 13.8498)
(0.406302 -0.0425893 16.2899)
(0.378946 -0.0487036 16.5954)
(0.297913 -0.0672331 13.8518)
(0.406337 -0.042574 16.2901)
(0.378972 -0.0487507 16.593)
(0.235389 -0.0455755 13.2027)
(0.323549 -0.0977859 15.3964)
(0.234441 -0.0480973 13.2082)
(0.323159 -0.0979026 15.3924)
(0.30094 -0.0648397 13.8545)
(0.406396 -0.0425939 16.289)
(0.378887 -0.0487939 16.5911)
(0.298162 -0.0671177 13.8567)
(0.406594 -0.0424765 16.2894)
(0.378849 -0.0487345 16.5895)
(0.235569 -0.0454408 13.2087)
(0.323775 -0.0974614 15.3972)
(0.232919 -0.047491 13.2138)
(0.324589 -0.0946589 15.3871)
(0.301191 -0.0646771 13.8594)
(0.40659 -0.0426471 16.2886)
(0.379037 -0.048927 16.5881)
(0.297103 -0.0663367 13.8619)
(0.407036 -0.0430324 16.2893)
(0.379005 -0.0486267 16.5859)
(0.233549 -0.0448133 13.2145)
(0.323634 -0.095927 15.3876)
(0.186289 -0.0521643 13.1746)
(0.330507 -0.0911685 15.299)
(0.300308 -0.0640508 13.8653)
(0.406334 -0.0413376 16.2895)
(0.379804 -0.0481151 16.5898)
(0.217646 -0.0711757 13.7424)
(0.425486 -0.0500585 16.2133)
(0.349152 -0.0703775 16.4954)
(0.184395 -0.0457098 13.1259)
(0.443523 0.0276327 16.2402)
(0.430102 -0.027788 16.1524)
(0.212409 -0.0668261 13.613)
(0.429557 -0.0548063 16.1674)
(0.342075 -0.0744143 16.4447)
(0.234472 -0.0341422 11.9022)
(0.258076 -0.0729165 12.7902)
(0.234231 -0.0342441 11.904)
(0.26561 -0.0727686 12.7911)
(0.233964 -0.0342858 11.911)
(0.234059 -0.0342766 11.907)
(0.233917 -0.0342469 11.9158)
(0.257368 -0.0736349 12.793)
(0.233928 -0.0341946 11.921)
(0.264888 -0.0733896 12.7943)
(0.234052 -0.0340358 11.9324)
(0.233967 -0.0341131 11.9266)
(0.234157 -0.033948 11.9385)
(0.257119 -0.0739365 12.7979)
(0.234297 -0.0338641 11.9447)
(0.264656 -0.0736333 12.7998)
(0.234619 -0.0336969 11.957)
(0.234447 -0.0337711 11.9509)
(0.234794 -0.0336179 11.9633)
(0.257181 -0.0740491 12.8047)
(0.234981 -0.0335484 11.9694)
(0.264746 -0.0737055 12.8069)
(0.235367 -0.0334166 11.9815)
(0.235165 -0.0334714 11.9755)
(0.235565 -0.0333608 11.9874)
(0.257479 -0.074066 12.8129)
(0.235772 -0.033318 11.9932)
(0.265071 -0.0737008 12.8152)
(0.236152 -0.0332349 12.0044)
(0.235962 -0.0332669 11.9989)
(0.23633 -0.0331968 12.0099)
(0.257946 -0.0740685 12.8218)
(0.236515 -0.0331687 12.0152)
(0.265548 -0.07369 12.8242)
(0.236854 -0.0331065 12.0253)
(0.236682 -0.03313 12.0203)
(0.237017 -0.0330753 12.0302)
(0.25846 -0.0740655 12.8309)
(0.23719 -0.0330543 12.035)
(0.266061 -0.0736729 12.8332)
(0.237504 -0.0330086 12.044)
(0.237345 -0.033024 12.0396)
(0.237654 -0.032987 12.0484)
(0.258968 -0.0740626 12.8397)
(0.237813 -0.0329734 12.0526)
(0.266569 -0.0736573 12.842)
(0.2381 -0.0329409 12.0606)
(0.237956 -0.0329511 12.0567)
(0.238238 -0.0329264 12.0645)
(0.259466 -0.0740588 12.8482)
(0.238386 -0.0329198 12.0682)
(0.267062 -0.0736435 12.8504)
(0.238649 -0.0328983 12.0753)
(0.238515 -0.0329018 12.0719)
(0.238774 -0.0328878 12.0788)
(0.259944 -0.0740585 12.8562)
(0.238912 -0.0328869 12.0821)
(0.267535 -0.0736348 12.8583)
(0.239153 -0.0328742 12.0884)
(0.23903 -0.0328726 12.0853)
(0.239266 -0.0328659 12.0914)
(0.260388 -0.0740637 12.8637)
(0.239397 -0.0328756 12.0944)
(0.267973 -0.0736325 12.8657)
(0.239615 -0.0328703 12.1001)
(0.239502 -0.032864 12.0973)
(0.239711 -0.0328628 12.1028)
(0.260759 -0.0740603 12.8708)
(0.239827 -0.0328741 12.1055)
(0.268321 -0.0736093 12.8728)
(0.240044 -0.0328627 12.1108)
(0.239928 -0.0328529 12.1082)
(0.240175 -0.0328559 12.1134)
(0.26086 -0.0738503 12.8777)
(0.240156 -0.0331444 12.1159)
(0.268323 -0.0732779 12.8792)
(0.238531 -0.0368609 12.1155)
(0.240594 -0.0327116 12.1209)
(0.248381 -0.0237854 12.137)
(0.255116 -0.0718908 12.8903)
(0.21681 -0.0630748 12.0155)
(0.268713 -0.0718225 12.8927)
(0.0883103 -0.0862066 10.2391)
(0.295004 0.0635808 12.1856)
(0.0247854 -0.219107 9.69425)
(0.290097 -0.0479714 14.4966)
(0.374136 -0.054505 16.6331)
(0.373992 -0.0544654 16.6325)
(0.289355 -0.0480858 14.4865)
(0.373926 -0.0543003 16.6313)
(0.37382 -0.054272 16.6303)
(0.288845 -0.0480645 14.4769)
(0.361455 -0.0795669 16.1761)
(0.373782 -0.054175 16.6287)
(0.380509 -0.0763406 17.1388)
(0.361554 -0.0798702 16.1741)
(0.373698 -0.0541917 16.6273)
(0.380649 -0.0765234 17.1393)
(0.288499 -0.0479509 14.4686)
(0.361691 -0.0801063 16.1693)
(0.373672 -0.0541581 16.6252)
(0.380794 -0.0767035 17.1379)
(0.361755 -0.0803657 16.1671)
(0.373591 -0.0541869 16.6234)
(0.380873 -0.0768234 17.1381)
(0.288291 -0.0477716 14.4622)
(0.361846 -0.0805599 16.1622)
(0.373559 -0.0541698 16.6209)
(0.381045 -0.0770336 17.1362)
(0.36189 -0.0807956 16.1601)
(0.373458 -0.0541995 16.6187)
(0.381128 -0.0771444 17.1359)
(0.288205 -0.0475635 14.4577)
(0.361947 -0.0809561 16.1553)
(0.373406 -0.0541957 16.6158)
(0.38126 -0.0773403 17.1335)
(0.361975 -0.0811579 16.1534)
(0.373297 -0.0542275 16.6132)
(0.381332 -0.0774431 17.1328)
(0.288212 -0.0473513 14.4548)
(0.362005 -0.0812744 16.1488)
(0.373245 -0.0542311 16.6101)
(0.381428 -0.0776301 17.1301)
(0.362024 -0.0814475 16.1472)
(0.373142 -0.0542627 16.6074)
(0.381483 -0.0777219 17.1292)
(0.288308 -0.0471386 14.4534)
(0.362035 -0.0815303 16.143)
(0.373099 -0.0542709 16.6042)
(0.381549 -0.0779005 17.1262)
(0.362058 -0.0816779 16.1418)
(0.373011 -0.0543015 16.6016)
(0.3816 -0.0779884 17.1251)
(0.288445 -0.0469567 14.4531)
(0.362078 -0.0817266 16.1379)
(0.372987 -0.0543109 16.5984)
(0.381665 -0.0781566 17.122)
(0.362095 -0.0818503 16.137)
(0.372915 -0.0543406 16.5959)
(0.381701 -0.078229 17.1209)
(0.288628 -0.0467915 14.4537)
(0.362095 -0.0818789 16.1335)
(0.372903 -0.0543475 16.593)
(0.381731 -0.0783805 17.1179)
(0.362132 -0.0819912 16.1328)
(0.372855 -0.0543781 16.5906)
(0.38178 -0.0784701 17.1168)
(0.288808 -0.0466596 14.4551)
(0.362185 -0.0819789 16.1299)
(0.372854 -0.0543834 16.5877)
(0.381862 -0.0785485 17.1136)
(0.362058 -0.0821234 16.1289)
(0.372747 -0.0544641 16.586)
(0.38179 -0.0785724 17.1128)
(0.288898 -0.0465213 14.4571)
(0.361721 -0.0821005 16.1275)
(0.372615 -0.054708 16.5842)
(0.381405 -0.0789334 17.1116)
(0.362219 -0.0812533 16.1263)
(0.3731 -0.0538172 16.5823)
(0.381896 -0.0782635 17.1093)
(0.287603 -0.0449326 14.4591)
(0.363495 -0.0794135 16.1224)
(0.372342 -0.0519781 16.5766)
(0.382843 -0.0744982 17.1015)
(0.361077 -0.0774037 16.1126)
(0.371669 -0.0539361 16.5884)
(0.381699 -0.0726468 17.102)
(0.249501 -0.0468113 14.4448)
(0.349234 -0.0815065 16.09)
(0.348859 -0.0631507 16.5656)
(0.371744 -0.0691353 17.1082)
(0.359004 -0.0704191 16.4438)
(0.190626 -0.0726967 11.3822)
(0.282441 -0.00866642 12.3293)
(0.25836 -0.0726126 12.79)
(0.184407 -0.0802569 11.388)
(0.278703 -0.0382492 12.2989)
(0.265385 -0.072969 12.7915)
(0.185096 -0.0807799 11.4065)
(0.277511 -0.0390758 12.2944)
(0.191334 -0.0732402 11.4006)
(0.281107 -0.00945463 12.3225)
(0.191572 -0.0733674 11.4068)
(0.280798 -0.00955288 12.3222)
(0.257495 -0.0735061 12.7921)
(0.185336 -0.0808919 11.4127)
(0.277243 -0.0391953 12.2948)
(0.264795 -0.073463 12.7954)
(0.186035 -0.0811706 11.4305)
(0.276735 -0.0393431 12.2993)
(0.192283 -0.0736374 11.4248)
(0.280202 -0.00961293 12.3253)
(0.19252 -0.0737013 11.4305)
(0.280091 -0.0096019 12.3273)
(0.257161 -0.0738763 12.7965)
(0.186258 -0.0812317 11.4361)
(0.276649 -0.0393505 12.3018)
(0.264652 -0.0736464 12.8013)
(0.186868 -0.0813815 11.4518)
(0.276583 -0.0393473 12.3108)
(0.193141 -0.0738362 11.4466)
(0.279966 -0.00951793 12.3355)
(0.193341 -0.0738736 11.4516)
(0.279978 -0.00948781 12.3387)
(0.257149 -0.0740214 12.8029)
(0.187056 -0.0814084 11.4567)
(0.276616 -0.0393287 12.3143)
(0.264803 -0.0736961 12.8088)
(0.187582 -0.0814947 11.4703)
(0.276812 -0.039294 12.3254)
(0.193876 -0.0739378 11.4656)
(0.280139 -0.00938965 12.3494)
(0.194056 -0.0739625 11.4699)
(0.280235 -0.00936963 12.3532)
(0.257393 -0.0740571 12.8107)
(0.18775 -0.0815101 11.4745)
(0.276921 -0.0392774 12.3293)
(0.265178 -0.0736865 12.8173)
(0.188241 -0.0815849 11.4865)
(0.277297 -0.0392657 12.341)
(0.194546 -0.074007 11.4821)
(0.280599 -0.00928539 12.3647)
(0.194713 -0.074033 11.4859)
(0.280733 -0.00927852 12.3686)
(0.257827 -0.0740586 12.8195)
(0.188401 -0.0816036 11.4902)
(0.277439 -0.0392633 12.345)
(0.265675 -0.0736765 12.8264)
(0.188861 -0.0816865 11.5008)
(0.277868 -0.0392455 12.3563)
(0.195177 -0.0740899 11.4967)
(0.281165 -0.00920907 12.3799)
(0.195328 -0.0741154 11.5001)
(0.281311 -0.00919417 12.3836)
(0.258339 -0.0740566 12.8286)
(0.189007 -0.0817023 11.5041)
(0.278018 -0.0392355 12.3601)
(0.266187 -0.0736598 12.8354)
(0.189425 -0.0817777 11.5135)
(0.278461 -0.0392118 12.3706)
(0.195747 -0.0741696 11.5097)
(0.28176 -0.00912128 12.3941)
(0.195885 -0.0741943 11.5127)
(0.281908 -0.00910723 12.3975)
(0.25885 -0.0740531 12.8375)
(0.189556 -0.081792 11.5165)
(0.278612 -0.0392006 12.374)
(0.266695 -0.0736423 12.8441)
(0.189934 -0.0818637 11.5248)
(0.279048 -0.0391775 12.3835)
(0.196262 -0.0742442 11.5213)
(0.282355 -0.00903986 12.4071)
(0.196386 -0.0742682 11.524)
(0.282499 -0.00902818 12.4101)
(0.259352 -0.0740486 12.8461)
(0.190051 -0.0818761 11.5275)
(0.279196 -0.0391678 12.3866)
(0.267183 -0.0736302 12.8524)
(0.190389 -0.0819439 11.5349)
(0.279617 -0.0391477 12.3953)
(0.196723 -0.0743161 11.5316)
(0.282931 -0.00897071 12.4189)
(0.196834 -0.0743387 11.534)
(0.283069 -0.00896386 12.4216)
(0.259832 -0.0740481 12.8542)
(0.190495 -0.0819555 11.5373)
(0.279758 -0.0391396 12.3981)
(0.26765 -0.0736203 12.8602)
(0.190795 -0.0820192 11.5439)
(0.280159 -0.039126 12.4059)
(0.197136 -0.0743841 11.5408)
(0.283483 -0.00891315 12.4295)
(0.197233 -0.0744058 11.5429)
(0.283611 -0.00890603 12.432)
(0.260283 -0.0740479 12.8618)
(0.190885 -0.0820284 11.546)
(0.280289 -0.0391172 12.4084)
(0.268074 -0.0736223 12.8675)
(0.19114 -0.0820858 11.5521)
(0.280664 -0.0391116 12.4155)
(0.197492 -0.0744496 11.549)
(0.283992 -0.00887307 12.4392)
(0.197568 -0.0744656 11.551)
(0.284103 -0.00886525 12.4415)
(0.260678 -0.0740461 12.869)
(0.191204 -0.0820871 11.554)
(0.280769 -0.0391014 12.4178)
(0.268391 -0.073577 12.8746)
(0.191357 -0.0820846 11.5596)
(0.281088 -0.0390705 12.4245)
(0.197732 -0.0744692 11.5567)
(0.28442 -0.00880996 12.4482)
(0.197768 -0.0744466 11.5585)
(0.284509 -0.00878646 12.4503)
(0.260956 -0.0739364 12.876)
(0.191364 -0.0820473 11.5614)
(0.281158 -0.0390322 12.4267)
(0.267654 -0.0728825 12.8811)
(0.190081 -0.0813973 11.5668)
(0.279296 -0.0394247 12.4328)
(0.197004 -0.074001 11.5637)
(0.283477 -0.00885793 12.4575)
(0.1964 -0.073749 11.5659)
(0.284631 -0.00858259 12.4597)
(0.259671 -0.0733631 12.8855)
(0.189171 -0.0812286 11.5711)
(0.284084 -0.0376652 12.4421)
(0.24078 -0.0554238 12.8379)
(0.127949 -0.0434278 11.0417)
(0.0725169 -0.054094 11.4744)
(0.184068 -0.0543087 11.3937)
(0.249834 -0.0138604 12.4134)
(0.113642 -0.0285599 10.702)
(0.0494358 -0.0210613 11.1306)
(0.171705 -0.0562215 12.4233)
(0.129219 -0.0478382 10.6929)
(0.0398024 -0.0800599 11.0653)
(0.232226 -0.0488019 13.1686)
(0.295733 -0.0330355 13.3929)
(0.2955 -0.0331074 13.393)
(0.233366 -0.0463926 13.1677)
(0.295198 -0.0330029 13.3952)
(0.295276 -0.0329845 13.3952)
(0.273621 -0.0422021 13.637)
(0.29883 -0.0659343 13.8489)
(0.273498 -0.0426263 13.6315)
(0.327248 -0.045239 15.0088)
(0.34252 -0.0459983 15.3004)
(0.327304 -0.0450707 15.0111)
(0.342408 -0.0462952 15.2992)
(0.301723 -0.063683 13.8502)
(0.273285 -0.0431055 13.6214)
(0.273372 -0.0428639 13.6262)
(0.327129 -0.0452377 15.0051)
(0.34213 -0.0467593 15.2951)
(0.342252 -0.0464943 15.2969)
(0.327038 -0.0453908 15.0022)
(0.231774 -0.0491199 13.1645)
(0.295053 -0.0328744 13.3972)
(0.295016 -0.0328804 13.3974)
(0.232971 -0.0466346 13.1639)
(0.294938 -0.0326747 13.3993)
(0.29492 -0.0326943 13.3993)
(0.273207 -0.0432044 13.617)
(0.297449 -0.0669058 13.8399)
(0.273172 -0.0433313 13.6133)
(0.326805 -0.0455312 14.9949)
(0.341961 -0.0469302 15.2923)
(0.326901 -0.0453841 14.9981)
(0.341829 -0.04718 15.2901)
(0.30037 -0.0646047 13.8413)
(0.273157 -0.0433991 13.6071)
(0.273143 -0.0433396 13.6098)
(0.326671 -0.045515 14.9907)
(0.341539 -0.047527 15.2845)
(0.341665 -0.0473235 15.287)
(0.326581 -0.0456474 14.9874)
(0.231721 -0.0491548 13.1633)
(0.294866 -0.0325123 13.4012)
(0.294888 -0.0325004 13.4013)
(0.232933 -0.0466374 13.1631)
(0.294887 -0.0322847 13.403)
(0.294836 -0.032309 13.4031)
(0.273179 -0.0433602 13.6046)
(0.296602 -0.0674148 13.8334)
(0.273236 -0.043376 13.6028)
(0.326379 -0.045764 14.9802)
(0.341376 -0.047632 15.2812)
(0.326459 -0.045632 14.9832)
(0.34125 -0.047812 15.2787)
(0.299551 -0.0650906 13.835)
(0.273388 -0.0433053 13.6002)
(0.273297 -0.0433058 13.6012)
(0.326266 -0.0457495 14.9763)
(0.340996 -0.048049 15.2728)
(0.341103 -0.0478912 15.2753)
(0.326197 -0.0458813 14.9735)
(0.231844 -0.0491156 13.1643)
(0.294839 -0.0321203 13.4048)
(0.294879 -0.0321096 13.4049)
(0.23306 -0.0465623 13.1644)
(0.294903 -0.0319071 13.4066)
(0.29484 -0.0319245 13.4067)
(0.273481 -0.0432227 13.5994)
(0.296177 -0.0676441 13.8298)
(0.273594 -0.0432064 13.5992)
(0.326042 -0.0460046 14.9675)
(0.34086 -0.0481161 15.2695)
(0.326098 -0.0458707 14.9699)
(0.340758 -0.0482566 15.2671)
(0.29915 -0.0653023 13.8316)
(0.273843 -0.0430992 13.5997)
(0.273708 -0.0431155 13.5993)
(0.325959 -0.0459875 14.9643)
(0.340549 -0.0483997 15.2617)
(0.340633 -0.0482869 15.264)
(0.325923 -0.0461022 14.9623)
(0.232071 -0.0490081 13.1672)
(0.294863 -0.0317522 13.4084)
(0.294912 -0.0317538 13.4084)
(0.233274 -0.0464368 13.1674)
(0.294943 -0.0315773 13.4101)
(0.294875 -0.031583 13.4101)
(0.273968 -0.0430034 13.6003)
(0.296082 -0.0676899 13.8291)
(0.274106 -0.0429778 13.6012)
(0.325846 -0.0461533 14.9579)
(0.34044 -0.0484096 15.2588)
(0.325862 -0.0460589 14.9595)
(0.340368 -0.0485035 15.2568)
(0.299081 -0.0653305 13.8311)
(0.274361 -0.0428543 13.6035)
(0.27423 -0.042878 13.6023)
(0.325803 -0.0460963 14.9555)
(0.340216 -0.0485737 15.2523)
(0.340275 -0.0484887 15.2541)
(0.325797 -0.046185 14.9543)
(0.232372 -0.0488576 13.1713)
(0.294901 -0.0314374 13.4118)
(0.294951 -0.0314537 13.4119)
(0.233564 -0.0462752 13.1716)
(0.29498 -0.0313023 13.4136)
(0.294915 -0.0312971 13.4136)
(0.274477 -0.0427556 13.6049)
(0.296207 -0.0676583 13.8304)
(0.274608 -0.0427304 13.6065)
(0.325777 -0.0461974 14.9513)
(0.340131 -0.0485555 15.2498)
(0.325766 -0.0461198 14.9522)
(0.340081 -0.0486229 15.2483)
(0.299232 -0.0652875 13.8327)
(0.274847 -0.0426167 13.6099)
(0.274722 -0.0426344 13.6081)
(0.32576 -0.0461224 14.9496)
(0.33998 -0.0486331 15.2447)
(0.340014 -0.0485801 15.246)
(0.325776 -0.0461976 14.9489)
(0.232706 -0.0486991 13.1763)
(0.294934 -0.0311725 13.4153)
(0.294981 -0.0311992 13.4154)
(0.23389 -0.0461085 13.1767)
(0.295013 -0.0310699 13.4171)
(0.294947 -0.0310547 13.4171)
(0.274961 -0.0425284 13.6117)
(0.296442 -0.0675903 13.833)
(0.275089 -0.0425122 13.6137)
(0.325799 -0.0461853 14.9472)
(0.339923 -0.0485893 15.2427)
(0.325769 -0.0461191 14.9475)
(0.339898 -0.0486388 15.2417)
(0.299478 -0.065211 13.8355)
(0.275323 -0.0424181 13.6177)
(0.275201 -0.0424279 13.6156)
(0.325804 -0.0461011 14.9461)
(0.339847 -0.048623 15.239)
(0.339858 -0.0485821 15.2399)
(0.325835 -0.0461664 14.9459)
(0.233055 -0.0485515 13.1818)
(0.294971 -0.0309515 13.4188)
(0.29502 -0.030987 13.4189)
(0.234233 -0.0459538 13.1823)
(0.295057 -0.0308783 13.4206)
(0.294989 -0.0308534 13.4207)
(0.275433 -0.042342 13.6198)
(0.296733 -0.0675074 13.8365)
(0.275558 -0.0423337 13.6219)
(0.325892 -0.0461409 14.9451)
(0.339816 -0.0485685 15.2374)
(0.325849 -0.0460818 14.9451)
(0.339811 -0.0486082 15.2367)
(0.299777 -0.0651223 13.8391)
(0.275784 -0.0422558 13.6262)
(0.275667 -0.042261 13.624)
(0.325917 -0.0460516 14.9446)
(0.339801 -0.048579 15.2347)
(0.339795 -0.0485444 15.2353)
(0.325956 -0.0461101 14.9446)
(0.233413 -0.0484185 13.1876)
(0.29502 -0.0307692 13.4223)
(0.295076 -0.0308119 13.4224)
(0.234582 -0.0458195 13.1881)
(0.295128 -0.0307128 13.4242)
(0.295053 -0.0306858 13.4242)
(0.27589 -0.0421891 13.6284)
(0.297061 -0.0674219 13.8406)
(0.276011 -0.0421928 13.6306)
(0.326041 -0.0460795 14.9446)
(0.33979 -0.0485189 15.2335)
(0.32599 -0.0460251 14.9444)
(0.339804 -0.0485543 15.2332)
(0.300105 -0.0650328 13.8432)
(0.276228 -0.0421295 13.635)
(0.276115 -0.0421232 13.6328)
(0.326082 -0.0459899 14.9446)
(0.33983 -0.0485148 15.2319)
(0.339804 -0.048484 15.2321)
(0.32613 -0.0460437 14.9448)
(0.233765 -0.0483029 13.1935)
(0.295096 -0.0306107 13.4258)
(0.295156 -0.0306573 13.426)
(0.234926 -0.0457041 13.194)
(0.295219 -0.030573 13.4278)
(0.295137 -0.030542 13.4277)
(0.276329 -0.042068 13.6372)
(0.297407 -0.0673411 13.8449)
(0.276444 -0.042083 13.6394)
(0.326234 -0.046013 14.9454)
(0.339836 -0.0484505 15.2309)
(0.326175 -0.0459562 14.945)
(0.339867 -0.0484857 15.2309)
(0.300449 -0.0649492 13.8476)
(0.276649 -0.0420332 13.6437)
(0.276544 -0.0420189 13.6415)
(0.326283 -0.0459187 14.9457)
(0.339919 -0.0484416 15.2301)
(0.339879 -0.0484091 15.2301)
(0.326337 -0.0459744 14.9461)
(0.234096 -0.0482239 13.1994)
(0.29519 -0.0304836 13.4293)
(0.295255 -0.0305381 13.4297)
(0.235249 -0.04562 13.1999)
(0.29528 -0.030459 13.4315)
(0.295218 -0.030426 13.4311)
(0.276746 -0.0419785 13.6458)
(0.297748 -0.0672738 13.8495)
(0.276858 -0.0420076 13.648)
(0.326454 -0.0459514 14.9472)
(0.339933 -0.0483787 15.2295)
(0.326388 -0.0458938 14.9465)
(0.339973 -0.0484188 15.2296)
(0.300788 -0.0648798 13.8522)
(0.277052 -0.0419679 13.6522)
(0.276952 -0.0419554 13.6501)
(0.326507 -0.0458758 14.9476)
(0.340038 -0.0483845 15.2293)
(0.339998 -0.048354 15.2292)
(0.326566 -0.0459274 14.9483)
(0.234359 -0.0481746 13.2053)
(0.295215 -0.0303633 13.4328)
(0.295257 -0.0304215 13.4334)
(0.235493 -0.0455588 13.2058)
(0.295231 -0.030322 13.4353)
(0.295203 -0.0303121 13.4346)
(0.277141 -0.0419208 13.6542)
(0.298041 -0.0672129 13.8543)
(0.277246 -0.0419522 13.6564)
(0.326686 -0.0459098 14.9497)
(0.340052 -0.0483289 15.2291)
(0.326618 -0.0458527 14.9489)
(0.340085 -0.04836 15.2293)
(0.301063 -0.0647975 13.857)
(0.277483 -0.0419258 13.6605)
(0.277355 -0.041895 13.6584)
(0.326766 -0.0458021 14.9504)
(0.340151 -0.048254 15.2295)
(0.340101 -0.048263 15.2293)
(0.326865 -0.0458587 14.9512)
(0.234314 -0.0478466 13.2111)
(0.295083 -0.0300802 13.4363)
(0.29475 -0.0299426 13.4369)
(0.2353 -0.0451507 13.2114)
(0.291707 -0.0288143 13.4363)
(0.29375 -0.0294998 13.4369)
(0.277663 -0.0419481 13.6626)
(0.29817 -0.066954 13.8592)
(0.277854 -0.0422183 13.6648)
(0.32716 -0.0461355 14.9531)
(0.340247 -0.0481675 15.2297)
(0.327011 -0.0458731 14.952)
(0.340268 -0.0481927 15.2302)
(0.301043 -0.0644605 13.8619)
(0.277195 -0.0452024 13.6664)
(0.278351 -0.041938 13.6683)
(0.327452 -0.0457542 14.9552)
(0.339718 -0.0479869 15.2315)
(0.340306 -0.0480783 15.2308)
(0.327093 -0.0479656 14.9531)
(0.228312 -0.0484718 13.222)
(0.288212 -0.0287567 13.4344)
(0.279922 -0.0253918 13.4305)
(0.229961 -0.0444293 13.2266)
(0.244714 -0.00498344 13.3824)
(0.281233 -0.0425436 13.3955)
(0.282599 -0.0366173 13.6794)
(0.292569 -0.0653122 13.8709)
(0.266933 -0.0618118 13.6125)
(0.322768 -0.0603911 14.9259)
(0.341476 -0.0482286 15.2364)
(0.328951 -0.0413606 14.9612)
(0.333222 -0.0484063 15.2332)
(0.299619 -0.0614797 13.875)
(0.222288 -0.165452 12.928)
(0.300668 0.0255411 13.7601)
(0.328643 -0.00486346 15.0015)
(0.284061 -0.0743338 15.0936)
(0.350563 -0.052874 15.2739)
(0.299739 -0.170254 14.5914)
(0.289042 -0.0201983 12.9483)
(0.238042 -0.235874 12.7088)
(0.312706 -0.0698202 14.4687)
(0.277218 -0.0701625 14.9728)
(0.308995 -0.181873 14.4659)
(0.265879 -0.0724975 12.7908)
(0.184628 -0.0804715 11.3941)
(0.278236 -0.0386128 12.2964)
(0.190858 -0.0729193 11.3882)
(0.281914 -0.00901418 12.3259)
(0.257852 -0.0731561 12.7906)
(0.191095 -0.073107 11.3944)
(0.281467 -0.00930164 12.3237)
(0.184868 -0.0806357 11.4003)
(0.277843 -0.0388739 12.295)
(0.265029 -0.0732723 12.7931)
(0.185568 -0.0809941 11.4187)
(0.277034 -0.0392754 12.2958)
(0.191811 -0.0734756 11.4129)
(0.280548 -0.00959986 12.3226)
(0.257291 -0.0737284 12.794)
(0.192049 -0.0735745 11.419)
(0.280346 -0.00962376 12.3237)
(0.185807 -0.0810919 11.4247)
(0.276859 -0.0393118 12.2973)
(0.264675 -0.0735818 12.7982)
(0.186469 -0.0812943 11.4415)
(0.276599 -0.0393616 12.3045)
(0.19273 -0.0737566 11.4361)
(0.280014 -0.00957836 12.3298)
(0.257114 -0.0739732 12.7995)
(0.192945 -0.0738122 11.4415)
(0.279972 -0.00955874 12.3325)
(0.186671 -0.0813369 11.4468)
(0.276579 -0.0393507 12.3076)
(0.264696 -0.0736903 12.8049)
(0.187238 -0.0814453 11.4614)
(0.276663 -0.0393265 12.3179)