# vtk DataFile Version 2.0
sampleSurface
ASCII
DATASET POLYDATA
POINTS 3098 float
0.746192 0 -5.00894e-05 -6.50534 1.11022e-16 -4.7391e-05 0.739507 0 7.49995 7.99812 0
1.94289e-05 -6.5124 -1.11022e-16 7.49992 7.99235 -1.11022e-16 7.50019 -13.7546 0 -1.50031e-05
0.734852 -1.11022e-16 14.9998 15.2496 -1.11022e-16 6.60617e-05 -13.7602 0 7.49982 -6.51784
-1.11022e-16 14.9998 15.2414 -1.11022e-16 7.50009 7.98685 0 14.9998 -13.7648 0
14.9999 -20.9938 0 4.36099e-06 15.2348 -1.11022e-16 14.9998 -20.9936 2.22045e-16 7.49977
22.5022 0 1.49541e-05 0.735071 0 22.4998 -6.51815 -1.11022e-16 22.4999 22.4915
0 7.49989 7.98745 -1.11022e-16 22.4998 -20.9933 -1.11022e-16 14.9999 -13.7652 1.11022e-16
22.4999 22.4829 -1.11022e-16 14.9998 15.2356 0 22.4998 -28.2515 0 2.62893e-05
-28.2534 0 7.50012 29.7556 -1.11022e-16 -4.54549e-05 0.735819 1.11022e-16 29.9999 29.7426
0 7.4992 -6.51767 0 29.9999 -20.9933 -1.11022e-16 22.5 7.98856 0
29.9999 22.4839 1.11022e-16 22.4999 -28.255 0 15 -13.7649 0 30
29.7256 0 14.9997 15.237 0 29.9999 -35.5072 -1.11022e-16 5.90779e-05 -28.2551
0 22.5 -35.5123 1.11022e-16 7.50007 -20.993 1.11022e-16 30 36.9932 0
-7.53554e-05 29.7252 1.11022e-16 22.4999 22.4857 -1.11022e-16 29.9999 0.736256 -1.11022e-16 37.5
37.0663 -1.11022e-16 7.5 -6.5174 0 37.5 7.98913 1.11022e-16 37.5 -35.5169
-2.22045e-16 15 36.9578 0 14.9999 -13.7648 0 37.5 15.2378 0
37.5 -28.255 0 30 -35.5174 0 22.5 29.7273 -1.11022e-16 30
-42.7594 0 0.000106246 -20.9929 1.11022e-16 37.5 36.9398 -3.33067e-16 22.4999 -42.765
0 7.50013 22.4866 -1.11022e-16 37.5 44.3067 1.11022e-16 -0.000173064 44.3156 -5.55112e-17
3.74923 44.3638 -1.11022e-16 7.50044 0.736588 -1.11022e-16 45 -42.7692 2.22045e-16 15.0001
-6.51713 0 45 7.98959 0 45 -35.5174 0 30 44.2537
1.11022e-16 14.9995 -28.2549 0 37.5 -13.7646 -2.22045e-16 45 15.2384 1.11022e-16
45 36.9405 0 30 29.7284 0 37.5 47.8983 5.55112e-17 -0.000231375
47.9106 0 3.74943 -42.7696 1.11022e-16 22.5 48.0131 0 7.50081 44.229
-2.22045e-16 22.4999 -20.9927 -1.11022e-16 45 -50 -1.11022e-16 0.000116555 22.4873 -1.11022e-16
45 -50 -1.11022e-16 7.50012 51.4805 0 -0.000354952 -35.5173 1.11022e-16 37.5
51.6484 5.55112e-17 3.75115 -50 -2.22045e-16 15.0001 51.6711 0 7.50084 -42.7696
0 30 0.736735 -1.11022e-16 52.5 36.9419 0 37.5 51.4953 -1.11022e-16
11.2492 -6.51706 0 52.5 7.98975 0 52.5 -28.2549 0 45
44.2289 -1.11022e-16 30 51.37 -5.55112e-17 14.9994 29.729 -1.11022e-16 45 -13.7646
0 52.5 51.3052 -2.1684e-19 18.7496 51.3048 -2.60209e-18 18.8318 15.2386 -2.22045e-16
52.5 51.3708 -2.38524e-18 18.7496 -50 1.11022e-16 22.5 54.9985 0 -0.00260162
55.0346 0 1.87535 55.1369 0 3.75138 55.3085 5.55112e-17 7.50038 51.2883
-5.55112e-17 22.4998 55.0461 -5.55112e-17 11.249 -20.9927 0 52.5 56.7456 0
0.0299735 56.7783 -2.77556e-17 1.87544 -42.7696 0 37.5 54.8698 0 14.9993
56.8619 2.77556e-17 3.75216 22.4876 1.11022e-16 52.5 -35.5173 -1.11022e-16 45 54.8229
0 17.1162 51.2808 6.93889e-18 26.2499 55.7413 -6.93889e-18 14.9994 54.8037 0
18.7496 44.2298 -1.11022e-16 37.5 36.9422 -2.22045e-16 45 -50 0 30
58.4645 0 -0.244693 58.5154 0 1.88535 58.9168 0 -0.257294 58.9375
1.38778e-17 1.84572 58.8346 1.38778e-17 4.04008 59.1468 -3.46945e-18 1.82581 59.2027 0
-0.270676 59.0815 0 3.9148 54.7907 0 22.4998 59.2532 0 -0.267831
59.2573 0 1.824 58.2324 -1.38778e-17 11.2624 59.254 0 3.02719 58.004
1.38778e-17 12.6256 59.2576 -3.46945e-18 3.82483 51.283 -6.245e-17 30 57.6498 2.77556e-17
14.9995 -28.2548 1.11022e-16 52.5 59.2774 -2.77556e-17 7.62697 58.8187 2.77556e-17 11.263
58.0011 -1.38778e-17 14.9995 0.736891 0 60 58.3071 0 14.9994 29.7293
1.11022e-16 52.5 59.2786 -2.77556e-17 11.2636 -6.5169 0 60 57.4289 2.77556e-17
18.7498 7.98997 -1.11022e-16 60 58.8533 5.55112e-17 14.9994 54.7868 1.249e-16 26.2499
58.0003 -1.38778e-17 18.7498 58.1668 0 18.7498 59.2769 -2.77556e-17 14.9994 51.2799
6.93889e-18 33.75 -13.7644 0 60 57.3667 0 22.4999 58.7945 0
18.7497 15.2389 1.11022e-16 60 -42.7696 -1.11022e-16 45 59.2786 -2.77556e-17 18.7497
57.9997 2.77556e-17 22.4999 58.1285 -6.245e-17 22.4999 54.7871 0 30 -50
0 37.5 58.7775 2.77556e-17 22.4999 57.3544 0 26.25 44.2301 -1.11022e-16
45 -35.5173 -2.22045e-16 52.5 59.2769 0 22.4998 51.283 -6.93889e-18 37.5
-20.9926 1.11022e-16 60 58.0001 0 26.25 58.1216 0 26.25 22.4878
1.11022e-16 60 36.9426 0 52.5 54.7861 -8.32667e-17 33.75 58.7756 0
26.25 57.3526 -1.66533e-16 30 59.2786 0 26.25 57.9997 -2.08167e-17 30
58.1203 2.08167e-17 30 51.28 0 41.25 58.7742 -5.55112e-17 30 -28.2547
0 60 54.7871 0 37.5 59.2769 0 30 57.3525 0
33.75 29.7295 0 60 58.0002 0 33.75 58.1205 -6.93889e-18 33.75
-50 0 45 0.736925 0 67.5 -42.7695 0 52.5 58.7752
-2.77556e-17 33.75 -6.5169 3.33067e-16 67.5 7.98998 -1.11022e-16 67.5 59.2786 2.77556e-17
33.75 51.2831 -3.46945e-17 45 57.3524 5.55112e-17 37.5 54.7862 1.38778e-17 41.25
44.2303 1.11022e-16 52.5 -13.7644 0 67.5 57.9998 0 37.5 58.1202
4.16334e-17 37.5 15.2389 -1.11022e-16 67.5 58.7741 0 37.5 -35.5171 1.11022e-16
60 59.2769 0 37.5 36.9425 0 60 57.3524 -5.55112e-17 41.25
-20.9926 -1.11022e-16 67.5 51.2801 -6.93889e-18 48.75 54.787 0 45 22.4878
2.22045e-16 67.5 58.0002 6.93889e-18 41.25 58.1204 0 41.25 58.7752 -2.77556e-17
41.25 59.2786 -2.77556e-17 41.25 -50 0 52.5 57.3524 0 45
-28.2547 1.11022e-16 67.5 54.7862 -2.77556e-17 48.75 51.2831 -6.245e-17 52.5 57.9998
6.93889e-18 45 58.1202 -6.93889e-18 45 -42.7695 -1.11022e-16 60 29.7296 0
67.5 58.7741 2.77556e-17 45 59.2769 0 45 44.2304 -2.22045e-16 60
0.737014 0 75 57.3524 0 48.75 -6.51679 -1.11022e-16 75 7.99012
-2.22045e-16 75 58.0002 -6.93889e-18 48.75 58.1204 0 48.75 54.787 -1.38778e-17
52.5 51.2801 0 56.25 -13.7644 0 75 -35.5171 -1.11022e-16 67.5
58.7752 2.77556e-17 48.75 15.239 0 75 59.2786 2.77556e-17 48.75 36.9428
2.22045e-16 67.5 57.3524 0 52.5 -20.9926 1.11022e-16 75 -50 -1.11022e-16
60 57.9998 6.93889e-18 52.5 22.4879 0 75 58.1202 -6.93889e-18 52.5
54.7862 -1.38778e-17 56.25 58.7741 2.77556e-17 52.5 51.2831 -1.38778e-17 60 59.2769
-2.77556e-17 52.5 -42.7695 0 67.5 -28.2547 1.11022e-16 75 57.3524 0
56.25 29.7296 0 75 44.2304 -1.11022e-16 67.5 58.0002 2.08167e-17 56.25
58.1204 6.93889e-18 56.25 54.7871 0 60 58.7752 2.77556e-17 56.25 59.2786
2.77556e-17 56.25 51.2801 0 63.75 0.737004 -1.11022e-16 82.5 -6.51683 0
82.5 7.99007 1.11022e-16 82.5 -35.5171 0 75 57.3524 0 60
57.9998 1.38778e-17 60 58.1202 4.85723e-17 60 36.9426 1.11022e-16 75 -13.7644
1.11022e-16 82.5 15.239 -2.22045e-16 82.5 58.7741 2.77556e-17 60 -50 2.22045e-16
67.5 54.7862 -2.77556e-17 63.75 59.2769 -2.77556e-17 60 51.2831 -6.245e-17 67.5
-20.9926 -1.11022e-16 82.5 22.4879 1.11022e-16 82.5 57.3524 0 63.75 58.0002
6.93889e-18 63.75 58.1204 6.93889e-18 63.75 -42.7695 0 75 58.7752 -2.77556e-17
63.75 54.787 0 67.5 59.2786 2.77556e-17 63.75 44.2304 0 75
-28.2547 -1.11022e-16 82.5 29.7297 0 82.5 51.2801 0 71.25 57.3524
0 67.5 57.9998 1.38778e-17 67.5 58.1202 4.85723e-17 67.5 58.7741 2.77556e-17
67.5 -35.5171 0 82.5 59.2769 -2.77556e-17 67.5 54.7862 -6.93889e-17 71.25
0.737067 -1.11022e-16 90 -50 -1.11022e-16 75 -6.51675 -1.11022e-16 90 7.99018
1.11022e-16 90 36.9429 2.22045e-16 82.5 51.2831 1.17961e-16 75 -13.7643 0
90 15.239 -1.11022e-16 90 57.3524 0 71.25 58.0002 6.93889e-18 71.25
58.1204 6.93889e-18 71.25 58.7752 -2.77556e-17 71.25 -20.9925 1.11022e-16 90 59.2786
2.77556e-17 71.25 22.488 1.11022e-16 90 54.7871 0 75 -42.7695 0
82.5 44.2305 0 82.5 51.2801 -6.93889e-18 78.75 -28.2547 -2.22045e-16 90
57.3524 0 75 29.7297 -1.11022e-16 90 57.9998 1.38778e-17 75 58.1202
4.85723e-17 75 58.7741 2.77556e-17 75 59.2769 -2.77556e-17 75 54.7862 0
78.75 -50 0 82.5 -35.5171 1.11022e-16 90 51.2831 -1.80411e-16 82.5
36.9427 1.11022e-16 90 57.3524 0 78.75 0.737038 0 97.5 -6.5168
0 97.5 58.0002 6.93889e-18 78.75 7.9901 -1.11022e-16 97.5 58.1204 6.93889e-18
78.75 58.7752 -2.77556e-17 78.75 -13.7644 2.22045e-16 97.5 59.2786 2.77556e-17 78.75
15.239 0 97.5 54.787 -1.38778e-17 82.5 -42.7695 -1.11022e-16 90 -20.9926
-1.11022e-16 97.5 22.4879 0 97.5 44.2304 1.11022e-16 90 51.2801 0
86.25 57.3524 0 82.5 57.9998 -6.93889e-18 82.5 58.1202 4.85723e-17 82.5
58.7741 2.77556e-17 82.5 -28.2547 0 97.5 59.2769 -2.77556e-17 82.5 29.7297
1.11022e-16 97.5 54.7862 1.38778e-17 86.25 -50 0 90 57.3524 0
86.25 51.2831 -6.93889e-18 90 -35.5171 -1.11022e-16 97.5 58.0002 1.38778e-17 86.25
58.1204 6.93889e-18 86.25 36.9429 2.22045e-16 97.5 58.7752 -2.77556e-17 86.25 59.2786
2.77556e-17 86.25 0.73709 -1.11022e-16 105 -6.51673 0 105 7.9902 -1.11022e-16
105 54.7871 0 90 -13.7643 0 105 15.239 1.11022e-16 105
-42.7695 -1.11022e-16 97.5 57.3524 0 90 51.2801 0 93.75 44.2305
1.11022e-16 97.5 57.9998 1.38778e-17 90 -20.9925 2.22045e-16 105 58.1202 4.85723e-17
90 22.4881 0 105 58.7741 2.77556e-17 90 59.2769 -2.77556e-17 90
54.7862 0 93.75 -28.2547 0 105 29.7297 0 105 -50
-1.11022e-16 97.5 57.3524 0 93.75 51.2831 -1.04083e-16 97.5 58.0002 6.93889e-18
93.75 58.1204 6.93889e-18 93.75 58.7752 -2.77556e-17 93.75 -35.5171 0 105
59.2786 2.77556e-17 93.75 36.9427 -1.11022e-16 105 54.787 1.38778e-17 97.5 0.737054
-1.11022e-16 112.5 -6.51679 2.22045e-16 112.5 7.99012 -1.11022e-16 112.5 57.3524 0
97.5 -13.7644 0 112.5 -42.7695 0 105 57.9998 1.38778e-17 97.5
51.2801 -6.93889e-18 101.25 58.1202 4.85723e-17 97.5 15.239 -1.11022e-16 112.5 58.7741
2.77556e-17 97.5 44.2305 1.11022e-16 105 59.2769 -2.77556e-17 97.5 -20.9926 1.11022e-16
112.5 22.4879 -1.11022e-16 112.5 54.7862 0 101.25 -28.2547 0 112.5
-50 2.22045e-16 105 29.7297 0 112.5 57.3524 0 101.25 58.0002
1.38778e-17 101.25 58.1204 6.93889e-18 101.25 51.2831 2.08167e-17 105 58.7752 -2.77556e-17
101.25 59.2786 2.77556e-17 101.25 -35.5171 -2.22045e-16 112.5 36.9429 1.11022e-16 112.5
54.7871 0 105 57.3524 0 105 57.9998 1.38778e-17 105 0.737101
-1.11022e-16 120 58.1202 4.85723e-17 105 -6.51672 0 120 51.2801 6.93889e-18
108.75 7.99022 -1.11022e-16 120 58.7741 2.77556e-17 105 -42.7695 0 112.5
59.2769 -2.77556e-17 105 -13.7643 -1.11022e-16 120 44.2305 0 112.5 15.239
-1.11022e-16 120 54.7862 -2.77556e-17 108.75 -20.9925 0 120 22.4881 0
120 57.3524 0 108.75 -50 0 112.5 58.0002 6.93889e-18 108.75
[...]
POINT_DATA 3098
FIELD attributes 2
p 1 3098 float
0.0548474 0.0417239 0.472472 0.065972 0.472604 0.443032 0.0121102 0.268477 0.0918658 0.490039 0.264997
0.465031 0.289147 0.281705 -0.0272193 0.300776 0.500901 0.140286 0.0794559 0.0696487 0.521657
0.0845369 0.292392 0.0568463 0.315938 0.0905847 -0.049509 0.49051 0.280527 0.0394824 0.62574
0.0378185 0.0540428 0.0360731 0.0852632 0.295417 0.0320293 0.413696 0.0341242 -0.0489466 0.0598334
0.451814 0.0321384 0.403568 0.0282501 0.0283142 0.028964 0.652182 0.0307126 0.0243919 0.281942
0.591751 0.0306506 0.0189297 0.0366467 0.0696238 -0.00729441 -0.00988738 0.033247 -0.0218904 0.369432
0.0122787 0.847433 0.21789 0.566131 0.0204431 0.25698 0.0226266 0.0156109 0.0451732 0.684192
0.0373451 0.0233789 0.00922942 -0.0393367 -0.00288532 1.16882 0.193705 0.0869502 0.375584 -0.0747937
0.025909 0.0200077 0.000270816 0.319537 1.27141 0.0443979 0.0377402 0.245456 0.853054 0.057952
0.0202712 -0.0164714 1.77133 0.0231047 0.0153247 0.0297618 -0.0652582 0.691457 -0.0128928 0.0244433
-0.132345 -0.13448 0.00984988 -0.131259 0.098436 1.01659 -0.186164 -0.435666 0.96018 -0.227882
2.08969 0.0265527 1.03441 -0.285208 0.0538896 0.784922 -1.02761 0.00169677 0.0369017 0.29862
-0.176414 0.808966 -0.0732344 -0.0272739 -0.0254877 0.0650563 1.70456 -0.386346 2.06464 -0.129572
-1.41174 -0.144454 2.17665 -1.4695 -0.232972 2.18223 -0.168045 2.34523 -1.03228 1.83746
-1.55518 -0.108717 0.858513 0.0299457 1.34638 2.01988 0.742545 0.0232695 0.621289 -0.00954225
2.11846 0.026342 -0.0119153 0.0189723 0.807468 -0.164653 0.000787018 0.00190233 0.795931 -0.0597765
0.0284219 -0.202349 -0.00772572 0.0151264 0.0463202 -0.0201845 -0.191095 -0.186651 -0.107544 0.0583081
-0.181233 -0.147449 -0.0348476 0.0363761 -0.177933 -0.0516567 0.0305193 -0.141376 -0.138195 0.00964043
-0.0205932 -0.0631434 -0.129367 -0.103121 -0.123107 -0.103726 -0.102106 -0.056929 -0.0966493 0.0336239
-0.050312 -0.0917841 -0.0662845 0.00333044 -0.0740375 -0.0746609 0.0503755 0.0263588 0.0448601 -0.0770337
0.0293258 0.0229339 -0.0764969 -0.0553512 -0.0503344 -0.0526344 -0.0268337 0.0317826 -0.0576308 -0.05883
0.0207436 -0.0641204 0.0393977 -0.0656438 -0.00253384 -0.0497067 0.0339773 -0.0500892 -0.0498698 0.0179218
-0.0556087 -0.0567701 -0.062962 -0.0653933 0.0486264 -0.0442171 0.0370775 -0.0416762 -0.0352387 -0.0489085
-0.0500567 0.046909 0.0163131 -0.0567885 -0.0598849 -0.00401399 0.0289229 -0.035468 0.0317403 0.0261656
-0.0393474 -0.0404051 -0.0264666 -0.0193504 0.0343301 0.0425363 -0.046933 0.0251266 -0.0503097 0.0162324
-0.0191797 0.0365137 0.0502779 -0.0219753 0.0240329 -0.0228511 -0.0080747 -0.0284653 -0.00195082 -0.0314435
0.0494485 0.0396311 -0.000438302 0.0252676 0.0194034 -0.00281362 -0.00361304 0.00967224 -0.00831127 -0.0108321
0.0133124 0.0315174 0.0340893 0.0292952 0.0449559 0.0172438 0.0148823 0.0140599 0.0291519 0.03664
0.0290409 0.0098225 0.052552 0.0254712 0.00733946 0.0260146 0.0387342 0.0290532 0.0324473 0.0297713
0.0288921 0.0514938 0.0251666 0.0384346 0.0229031 0.035435 0.0417976 0.0316349 0.0359268 0.0452588
0.0425862 0.0416746 0.0384175 0.0470346 0.0362837 0.04834 0.0347475 0.0544305 0.0372178 0.0327645
0.0376917 0.0434562 0.0396331 0.0329666 0.05443 0.0512583 0.0502782 0.0474337 0.0415406 0.0455368
0.0335949 0.0558789 0.053315 0.0456953 0.0490032 0.0444586 0.0616449 0.0368181 0.0582284 0.057175
0.0545103 0.052626 0.0613334 0.0561068 0.0494477 0.0536368 0.043769 0.066473 0.0384316 0.0407384
0.0626669 0.0366467 0.061573 0.0592503 0.0430263 0.0575796 0.0370565 0.0658196 0.0553731 0.0447474
0.0379384 0.0524314 0.056845 0.0707206 0.0667503 0.065602 0.0633862 0.0474899 0.0617246 0.0412365
0.0691005 0.0580031 0.0736011 0.0599855 0.0521991 0.069359 0.0681974 0.0483078 0.0662935 0.0648447
0.0420095 0.0441918 0.0404342 0.0719141 0.046421 0.0410704 0.0578147 0.0761785 0.0620839 0.0573777
0.0718181 0.0480059 0.0706118 0.0421298 0.0687516 0.0672821 0.0740737 0.0505893 0.0454461 0.0603336
0.0779711 0.0646642 0.0733982 0.0721914 0.0705838 0.0550758 0.0692828 0.0522699 0.0763868 0.0454575
0.0474482 0.0441348 0.0802237 0.049663 0.0604566 0.0756189 0.0666827 0.07438 0.0448858 0.0727732
0.0614261 0.0714359 0.0511722 0.0460272 0.0786504 0.0536193 0.0628958 0.0495148 0.0822503 0.0775289
0.0763019 0.0693155 0.074908 0.0737198 0.0579482 0.0561301 0.0810472 0.0846226 0.0799262 0.0488327
0.0786683 0.0506706 0.0712889 0.0475638 0.0772027 0.0631685 0.0759276 0.0527687 0.0651596 0.0483007
0.0831933 0.0541571 0.0494988 0.086541 0.0655702 0.081766 0.0564976 0.0805284 0.0792547 0.0531499
0.073816 0.0781188 0.0855161 0.060692 0.0598303 0.0888916 0.0841933 0.0829389 0.0816138 0.0756405
0.0804124 0.0657853 0.0518817 0.0535853 0.050655 0.0688275 0.0555331 0.0514271 0.0876282 0.0568595
0.0527084 0.0909801 0.0863134 0.085095 0.0681649 0.0839636 0.0828971 0.0776543 0.0591759 0.0563968
0.0893343 0.0632695 0.0631195 0.0927349 0.0881467 0.0869174 0.0857298 0.0845928 0.0789725 0.068269
0.0721933 0.0546429 0.05624 0.0535075 0.090768 0.0581703 0.0543361 0.0940993 0.0594834 0.089515
0.0883219 0.05567 0.0706358 0.0873178 0.0863093 0.0807408 0.0617231 0.0593781 0.0923747 0.0656748
0.0959265 0.0660724 0.0914895 0.0902878 0.089199 0.0881073 0.0820906 0.0705726 0.0751308 0.0939337
0.0572906 0.0588625 0.0561506 0.0607137 0.0974814 0.0570299 0.0931124 0.0919658 0.0911122 0.0729328
0.0901889 0.0618715 0.0584172 0.0839266 0.0639698 0.0622017 0.0955946 0.0993126 0.0678638 0.09508
0.0939242 0.0690217 0.0929613 0.0919334 -0.0694263 -0.139788 0.0852224 -0.0377474 0.0292666 -0.0620616
0.0171527 -0.121123 0.0727349 -0.0374556 0.0276401 0.00191295 0.0971204 0.0780601 0.0199811 -0.0294309
-0.052564 -0.0957533 -0.0521319 -0.0944611 -0.0372696 0.00298867 -0.0372565 0.0597315 0.0249254 0.024837
0.100804 0.0611912 -0.0538394 0.058658 -0.0240122 0.0233951 0.0966085 0.0235154 0.0954929 0.0629324
0.0947162 0.0595872 0.00366704 0.00368712 -0.0693991 0.0938194 -0.0468089 0.0750985 -0.0407607 -0.0662221
-0.0173802 -0.0172184 -0.0288929 0.0870218 0.0639964 -0.0624071 0.0179895 -0.0792623 0.0610187 -0.0378099
-0.0375889 0.0216369 0.00721791 -0.0724575 -0.0338826 -0.0472098 -0.0862283 -0.0534309 -0.0532096 0.0660479
-0.0240826 0.0987014 0.0108017 -0.00872141 0.0648066 0.0181583 -0.0794082 -0.0637686 -0.0635548 -0.0890405
-0.025647 0.102518 0.00884064 0.0984304 0.0973055 -0.0038239 0.0964097 0.0699169 -0.0394603 -0.0823594
-0.0707286 -0.070516 0.0954167 -0.0265684 -0.0340612 0.0716438 -0.0174462 -0.0885253 -0.0185953 0.00897875
-0.0491073 0.0883197 0.0172254 -0.0738768 -0.0736696 -0.0821499 -0.0310023 0.0113114 -0.0865454 -0.0556487
0.00102833 0.0747673 -0.0402607 0.100264 -0.074085 -0.0738885 0.0807773 -0.0804262 -0.0115053 -0.0588375
-0.0183743 -0.0197007 -0.0841125 -0.0101046 -0.0463034 0.104148 0.00712435 -0.0225113 0.100151 -0.0727031
0.0990771 -0.072515 0.0160293 0.0619812 0.0983778 -0.0781736 0.0633962 0.0609678 -0.0596096 0.0975241
0.0138644 -0.049655 -0.0308632 0.0651158 0.0771355 -0.0815416 0.0619252 0.0063225 0.0900132 -0.0706911
-0.0705091 -0.0366562 0.0661169 -0.0757254 -0.0588549 -0.00368402 -0.0506436 0.0633994 -0.0791628 -0.0129632
0.101744 -0.0398236 -0.0684062 -0.0682282 0.068109 -0.0504654 -0.0573846 -0.0140702 -0.0734353 0.0672541
-0.0128396 -0.0204145 -0.00745041 0.105725 0.00191075 -0.0411742 0.101801 0.100709 0.00861797 -0.0770133
0.0998938 -0.0257621 -0.0662357 -0.0660608 -0.0492403 0.0989365 0.00905297 -0.0554766 0.0719115 -0.0713554
0.0741473 0.00508516 -0.0412159 0.0911952 -0.0288764 -0.00156595 -0.0477237 -0.0749052 -0.064248 -0.0640756
-0.0536106 -0.0404838 -0.00835851 -0.0304648 0.076709 0.103163 -0.0692966 0.0833482 -0.0142865 -0.0459597
-0.00903668 -0.00780566 -0.00463687 0.107146 -0.0729919 -0.0519177 -0.0622493 -0.0620782 -0.0309072 -0.0391657
0.000911349 0.103233 0.102173 0.00573311 -0.018865 0.101499 0.100648 -0.0673977 0.00711507 0.0640601
0.0654226 0.0630843 0.0790654 -0.0445859 -0.0305904 0.00535574 -0.0218907 0.0671242 -0.0377463 -0.0501301
0.0927834 0.0640574 -0.0603654 -0.0601947 -0.07159 0.00102887 0.0680713 -0.0237207 -0.0659946 0.0655831
-0.0296265 -0.00386383 -0.042841 0.104702 -0.0364513 -0.0483459 -0.00857962 -0.0589613 -0.0587906 0.0699905
-0.0705277 -0.0246047 -0.0121053 -0.0114537 0.108916 0.0695109 -0.0097799 0.10512 -0.0284777 0.104045
-0.00651282 0.103244 -0.0125388 -0.0649441 -0.00316989 0.102286 -0.0412368 -0.035001 -0.00180532 -0.0248088
0.0737341 -0.0470067 -0.0153821 -0.00274159 -0.057928 0.0764437 -0.057758 0.0939706 -0.0274002 -0.0694824
-0.00571452 -0.0244103 -0.0398477 -0.0172892 -0.0639084 -0.033466 -0.00919551 0.106175 0.0785061 -0.046077
-0.0261648 0.0856628 -0.0569013 -0.0567314 -0.0129526 -0.0185061 -0.0237389 0.110425 -0.00510241 -0.068469
-0.00511665 -0.00448013 0.106663 0.105627 -0.00276715 -0.0322544 -0.0390859 0.104994 -0.0163009 0.104164
-0.000435713 -0.0628895 -0.0190419 0.000576464 -0.02481 -0.0451211 0.0808629 -0.0229473 0.065988 -0.018704
0.0672821 -3.21454e-05 0.0650456 -0.0558716 -0.0557014 0.0953759 0.0689674 -0.0677121 -0.00203026 0.0660505
-0.0314377 -0.0189689 -0.0380805 -0.0203335 -0.0621275 0.0699093 -0.00445292 -0.0236948 0.107475 -0.0219745
0.0676161 -0.0440868 -0.00728474 -0.0215761 -0.0186219 -0.0551046 -0.0549345 0.111884 -0.00564075 0.0717793
-0.0062108 0.108193 0.10713 -0.00633939 -0.0305922 0.0715778 -0.067078 -0.00575904 0.106325 -0.0371459
-0.00995672 0.105351 -0.020904 -0.00404182 -0.0229292 -0.0222484 -0.0615045 -0.00317625 -0.0180992 -0.0433252
-0.0119665 0.0754359 -0.00335549 0.0962021 0.0785034 -0.0544975 -0.054328 -0.0222648 -0.00448748 -0.0296356
-0.0199805 -0.0133261 -0.0362939 -0.0662775 -0.0221539 -0.0173204 -0.00622577 0.108534 0.0801755 -0.0607214
-0.0427863 -0.0219864 -0.0144369 -0.00836614 0.0876863 0.112999 -0.00372489 -0.00486251 0.10935 0.108327
-0.00570603 -0.0192506 -0.0537338 -0.0535647 -0.0288964 0.10769 -0.0163937 -0.00562897 -0.0103778 0.106838
-0.0212669 -0.0358948 -0.00431631 -0.0151724 -0.0653908 -0.0216713 -0.00368191 -0.0120713 0.082559 -0.00361705
-0.059838 -0.0420817 0.0973959 0.0677826 0.0690368 -0.0153384 0.0668614 -0.0155918 -0.0185231 -0.00409849
-0.0133176 0.070675 -0.0284099 -0.0211543 0.0678838 -0.0528506 -0.0526814 -0.0205573 -0.00529964 -0.035134
0.109631 0.0715709 -0.0646674 -0.0151408 0.0694723 -0.0143336 -0.00699124 0.114287 -0.014952 -0.0591186
0.110744 -0.0177632 -0.0411888 0.109708 -0.0203483 -0.00365196 -0.00529933 0.0734263 0.108952 -0.00673542
-0.00850295 0.108003 0.0734482 -0.00677395 -0.0150244 -0.0277828 -0.0149531 -0.020082 -0.00554222 -0.0521372
-0.0519683 -0.0343359 -0.00504904 -0.00975878 0.0770644 -0.0142706 -0.00495278 -0.0639759 0.0982032 -0.0195781
-0.0153016 0.0803043 -0.0171391 -0.0108503 -0.00509094 -0.0146612 -0.0404781 -0.058448 -0.00579746 0.110797
-0.0269521 -0.0195002 -0.0152879 -0.0118467 -0.0514955 -0.0513274 0.0817926 -0.0335375 -0.0190443 -0.0135453
-0.00710342 0.115536 0.0894419 -0.0140408 0.112018 0.111015 -0.0166477 -0.00678739 -0.00888108 -0.0630883
0.110409 -0.0106842 -0.00832597 -0.0125019 0.109575 -0.0151909 -0.0109539 -0.0399197 -0.00967438 -0.0575837
-0.0187243 -0.0090569 -0.026261 -0.0092409 -0.0185191 0.084183 -0.0133442 -0.0129638 -0.0127444 -0.00884567
0.0993376 -0.0506588 -0.0504913 -0.0331277 -0.0149439 0.0694766 -0.00883404 -0.0100774 -0.0160813 0.0706616
0.0685721 0.0722352 -0.0621537 0.0695686 -0.00923224 0.111769 -0.012845 -0.0128692 -0.0178365 -0.039159
-0.0110069 0.0731049 -0.0566566 -0.0180586 -0.0144566 -0.0101165 -0.0257705 -0.0125177 0.07116 0.116651
0.113219 0.112196 0.00683023 0.00435976 0.111442 -0.0128937 0.0023395 -0.0110602 -0.0497376 -0.0323239
-0.0495702 0.11048 -0.011677 -0.0154115 0.00178609 0.0749649 0.0751605 0.00305205 -0.0124777 -0.0139137
-0.0172241 0.00388278 -0.0117898 -0.0614397 -0.01189 0.00434527 -0.0119761 -0.0127084 -0.0382334 0.0999234
-0.0175829 0.0785965 -0.0251003 -0.0559448 0.00454155 -0.0124245 0.0820215 -0.0148355 0.00428336 -0.011896
-0.0135051 -0.0314928 -0.0119489 0.112584 -0.0490296 -0.0488624 -0.0168358 -0.0131851 -0.0122666 0.00368282
0.0833257 0.11751 0.0910862 -0.0113325 0.114099 0.113111 -0.0608101 0.00356047 0.000825045 0.112513
-0.0120946 0.0030386 -0.0169611 -0.0138031 -0.00143109 -0.0375218 0.111668 -0.00220302 -0.0242321 -0.0131084
-0.0112873 -0.0553326 -0.000999376 -0.0118484 -0.0143494 0.00245036 -3.12476e-05 -0.0164188 -0.0306924 -0.0140679
0.08572 -0.048442 -0.0482755 0.000501279 -0.0120485 0.100921 0.0018669 -0.0108015 0.000883406 -0.0125925
-0.011565 0.0709905 0.0721295 -0.0109037 0.070099 -0.0141328 -0.0161387 0.000779367 -0.0600631 0.113522
-0.0370059 0.00121905 0.0736828 -0.0235298 -0.0116649 0.0710909 -0.0158037 0.000324102 -0.0137425 -0.0545984
0.11865 0.0745364 0.115331 0.0726889 0.114328 -0.0142768 -0.0303149 0.000717479 -9.47072e-05 -0.000434908
0.113602 -0.0111993 -0.00452552 -0.0477208 -0.0120757 -0.0475546 -0.00555485 0.112653 -0.0103693 -0.00801218
-0.0112621 -0.0105827 0.0763911 -0.0055156 -0.000475081 0.0766944 -0.00575182 -0.0154551 0.000412731 -0.0143125
-0.059466 -0.0152332 -0.00394268 -0.0363397 -0.0230683 -0.0130087 0.101595 -0.000974103 -0.0106805 0.0800323
-0.0048069 -0.0539966 -0.0117122 -0.0110756 0.0835596 0.000228246 -0.0295964 -0.00349764 -0.0097958 -0.01005
-0.0140511 0.114569 -0.0015756 -0.0471091 -0.0469425 -0.00516507 0.0847589 0.119788 5.56225e-05 -0.0150037
-0.0148595 -0.0102399 0.116489 0.115518 -0.00200852 -0.010832 0.0925803 -0.00415219 0.114945 -0.011365
-0.0224828 -0.0592395 -0.0123922 0.114116 -0.0357065 -0.0137029 -0.00577402 -0.053775 -0.00947077 -0.00225216
-0.0090896 4.43985e-05 -0.0290404 0.0871524 -0.0103383 -0.00996763 -0.0468963 -0.0467301 -0.00484023 0.102571
-0.0135332 -0.0144252 -0.0108868 -0.00248223 -0.0144735 0.00022552 -0.00674704 -0.0119701 0.0724129 0.115416
-0.0218955 0.0735491 0.0715196 -0.0354918 -0.0590423 -0.00909543 0.075096 0.0725017 -0.00850356 -0.00988467
-0.00271996 -0.0133598 0.120782 -0.00962779 -0.0535987 -0.0058046 0.117556 0.116562 0.0759323 0.000435477
-0.0287344 0.115838 0.00904168 0.0741002 0.114883 0.00497216 -0.0103935 -0.0137753 -0.0467499 -0.0465846
0.00430449 -0.00274139 -0.00741752 0.0778028 -0.0139356 0.0780983 -0.012959 -0.0115655 -0.00968616 -0.00876629
0.0056578 0.000571589 -0.0216715 -0.00912544 -0.03542 0.103017 -0.0585428 -0.00818535 -0.00624379 0.081439
-0.00254687 0.0849701 -0.0100349 -0.053109 0.00609687 -0.0131937 -0.0288005 0.116124 -0.0125367 0.000783874
-0.0094398 -0.00785152 -0.0462692 -0.046104 0.121565 -0.0137108 -0.00823024 -0.0024126 0.0861389 -0.00869572
0.118362 0.117402 -0.0111505 0.00602261 0.116826 0.0939871 0.115984 -0.0216285 -0.00792735 -0.00653863
-0.0349866 -0.00967932 -0.0578914 0.00112852 -0.01233 -0.0129572 -0.00235348 -0.00893595 -0.05245 0.0885259
0.00559305 -0.0283101 0.103905 -0.00842026 -0.00775556 -0.00769072 -0.0455962 -0.0454306 -0.0136468 -0.0109231
0.00143419 -0.0121313 0.11695 -0.00214987 -0.00920191 -0.00755079 0.0738488 -0.0212591 0.0750218 0.0729135
-0.00847108 -0.00625449 -0.034284 0.00492303 0.0765797 0.122579 -0.0128018 0.0738577 -0.0574022 0.119463
0.118485 0.117776 -0.0080653 0.0174362 0.116827 0.0165645 0.0773956 0.0138922 -0.0519546 0.0754357
-0.00746343 0.00162806 -0.0276835 -0.00178624 0.0142328 0.0140197 -0.0117024 -0.00757 0.0156687 -0.0133131
-0.0450942 -0.0449285 0.079239 -0.0107724 -0.0087449 0.0793912 -0.00824409 0.0146025 -0.00726872 0.00453401
0.104457 0.0156237 -0.0205964 -0.0124192 -0.00154623 -0.00757412 0.0018816 0.0828229 -0.0337653 -0.00604512
0.0150119 0.0862191 -0.0570291 -0.0112503 0.11787 -0.00736053 0.0160178 -0.051594 -0.0270678 -0.00793589
0.123582 -0.00855969 0.120475 0.119527 0.0147802 0.0874988 -0.0126946 -0.00141393 -0.0104224 0.118966
-0.0447513 -0.0445862 -0.00707705 0.0129596 0.118131 0.0951799 0.0112785 0.00433199 0.00226132 0.00956657
-0.00711476 0.00899758 -0.00719157 0.0156179 0.00975339 -0.0120701 -0.0109882 -0.0200634 0.0103478 -0.0334705
-0.00704853 0.0147041 0.010311 0.0898873 -0.0565091 -0.00747053 -0.00547822 -0.00115339 0.105264 0.0103675
-0.00850883 0.00260026 -0.0268932 0.0155177 -0.0510837 0.0107144 -0.00988495 -0.0121664 0.118551 -0.00713846
0.00440021 -0.0106913 -0.00676883 0.010746 -0.0442501 -0.0440851 0.0141105 0.0751165 -0.011946 0.0763344
0.0741184 0.124395 -0.00670154 -0.000752858 -0.0197778 0.0104776 0.121343 0.12037 0.077939 -0.00668922
0.0750005 0.11965 -0.00723435 0.118685 -0.00132263 0.00284801 -0.00223931 0.0149023 -0.0330042 -0.00426728
0.0787345 0.0103399 -0.00460475 -0.00829124 0.076565 -0.0558953 -0.00431625 -0.00320884 -0.0103603 -0.0263613
-0.00719449 0.010472 -0.0504636 0.0805257 -0.00512024 0.0140785 -0.00356522 -0.00943984 0.0805217 -0.0118584
-0.000490219 -0.00623351 0.00462284 0.105573 -0.00301627 -0.0117026 -0.0436181 -0.0434527 0.0103609 -0.00738244
0.00317316 -0.00322836 -0.00652054 0.0840912 0.015054 -0.0193538 0.0873279 0.119108 -0.00798439 -0.00269707
0.00996273 -0.00610311 -0.0323483 -0.0103271 0.124998 -0.000333256 -0.00696855 -0.00336367 0.121955 0.121013
0.0137199 -0.0555104 0.0887603 0.120437 0.119581 0.00977984 -0.0257827 0.096248 -0.0500722 -0.00911282
0.00339061 -0.00304915 -0.00582939 -0.0114577 -0.00749932 -0.011181 0.014613 -0.00633148 0.0049981 -0.0432187
-0.0430532 -0.00450953 0.00996395 -0.00338122 -0.00778453 -0.010539 0.0911437 -0.0187303 -5.88378e-05 0.106271
-0.00295883 -0.00666514 -0.0319125 0.00996567 0.0139326 0.00327256 0.119752 -0.0552622 -0.0071954 -0.00372456
-0.0057263 -0.0252413 -0.0087056 -0.00556924 -0.0498329 -0.0107307 -0.0108661 0.125831 0.00963017 0.076046
0.0773388 0.122868 0.121907 -0.00588944 0.0749846 0.000165427 0.0150885 -0.0106075 0.121198 -0.00348289
0.0789864 0.120237 -0.00754129 0.0758241 -0.0429929 -0.0428277 -0.00498414 -0.00701026 0.00540054 -0.018268
0.0797829 -0.00652392 -0.00735324 0.00952219 0.0773971 0.00308783 -0.00378524 -0.00422146 0.0139438 -0.0317084
-0.00681604 -0.00675642 0.0815866 0.0813754 0.106656 1.55591e-05 -0.0548114 -0.00518815 0.00982993 -0.00819071
-0.00329439 -0.0105199 -0.0103158 -0.0251385 -0.00651645 -0.00543008 -0.0104048 -0.0493881 0.0851727 -0.00715024
0.120505 0.0150028 0.0881873 0.00314445 -0.00628224 -0.00536608 -0.0425545 -0.0423895 -0.0040026 0.126667
0.00999144 -0.0180634 -0.00657442 0.123708 0.122777 0.122219 -0.0067207 0.0898606 0.121377 -0.000211085
0.00569344 0.0970454 0.0144487 -0.03132 -0.00993804 -0.00370886 0.00982251 -0.00468348 -0.010247 -0.00780483
-0.00654805 -0.0542682 -0.0051915 -0.0246893 -0.0041225 -0.00676966 0.00341871 -0.0101871 0.092257 -0.048837
-0.00584501 0.107203 -0.00389715 0.0157402 -0.0419913 -0.0418259 -0.000117693 -0.00656122 0.00986978 -0.0177305
0.120957 -0.00669656 -0.00979316 -0.00327055 0.12726 -0.00564899 -0.0307461 0.124356 0.1234 0.0147482
0.0036872 0.0774772 -0.00975154 0.122686 -0.00432373 0.0788595 -0.00498097 0.0762876 0.121716 0.010303
-0.00755317 0.00570322 0.00536146 -0.0065257 0.00423022 0.0805802 -0.053925 0.0769952 -0.0241976 -0.00550373
-0.00988855 0.00383349 0.0002158 -0.00383795 -0.0484888 -0.006725 0.0813975 -0.00610876 0.078466 0.00418974
0.0157684 -0.0416378 -0.0414724 -0.00966079 0.0106051 0.0831332 -0.00423971 -0.0171952 0.0823592 0.107254
0.00383169 0.00427871 -0.00339994 -0.0303739 -0.00933504 -0.00456019 0.0866051 0.121274 -0.00410779 -0.0062709
0.0891093 0.000416809 -0.00722554 -0.00683569 -0.00533161 0.014818 0.0106023 0.00435481 0.127633 -0.0536992
-0.00938661 -0.0237318 -0.00571855 0.124735 0.123809 -0.00347785 0.123242 -0.00527415 0.122385 -0.0482733
-0.00928876 0.091189 0.00579923 0.0978554 0.00402791 -0.0414374 -0.0412724 0.00438 -0.0168078 0.010574
0.0156681 -0.00272225 0.000482409 -0.0067629 -0.00412961 -0.00915595 -0.00590453 0.0935384 -0.00378268 -0.00508011
-0.0302248 0.107801 -0.00678702 -0.00559902 -0.00374159 0.00433537 -0.00900022 -0.00890369 -0.0237048 -0.0533452
0.121735 0.0105752 -0.00317187 0.0144284 0.00435398 -0.0479308 0.128265 0.125437 0.12449 0.000687866
0.123787 -0.0411072 -0.0409424 0.122824 -0.0166791 0 0.0798529 0.0813988 0 0.078444